
                                 *****************
                                 * O   R   C   A *
                                 *****************

                                            #,                                       
                                            ###                                      
                                            ####                                     
                                            #####                                    
                                            ######                                   
                                           ########,                                 
                                     ,,################,,,,,                         
                               ,,#################################,,                 
                          ,,##########################################,,             
                       ,#########################################, ''#####,          
                    ,#############################################,,   '####,        
                  ,##################################################,,,,####,       
                ,###########''''           ''''###############################       
              ,#####''   ,,,,##########,,,,          '''####'''          '####       
            ,##' ,,,,###########################,,,                        '##       
           ' ,,###''''                  '''############,,,                           
         ,,##''                                '''############,,,,        ,,,,,,###''
      ,#''                                            '''#######################'''  
     '                                                          ''''####''''         
             ,#######,   #######,   ,#######,      ##                                
            ,#'     '#,  ##    ##  ,#'     '#,    #''#        ######   ,####,        
            ##       ##  ##   ,#'  ##            #'  '#       #        #'  '#        
            ##       ##  #######   ##           ,######,      #####,   #    #        
            '#,     ,#'  ##    ##  '#,     ,#' ,#      #,         ##   #,  ,#        
             '#######'   ##     ##  '#######'  #'      '#     #####' # '####'        



                  #######################################################
                  #                        -***-                        #
                  #          Department of theory and spectroscopy      #
                  #    Directorship and core code : Frank Neese         #
                  #        Max Planck Institute fuer Kohlenforschung    #
                  #                Kaiser Wilhelm Platz 1               #
                  #                 D-45470 Muelheim/Ruhr               #
                  #                      Germany                        #
                  #                                                     #
                  #                  All rights reserved                #
                  #                        -***-                        #
                  #######################################################


                         Program Version 5.0.3 -  RELEASE  -


 With contributions from (in alphabetic order):
   Daniel Aravena         : Magnetic Suceptibility
   Michael Atanasov       : Ab Initio Ligand Field Theory (pilot matlab implementation)
   Alexander A. Auer      : GIAO ZORA, VPT2 properties, NMR spectrum
   Ute Becker             : Parallelization
   Giovanni Bistoni       : ED, misc. LED, open-shell LED, HFLD
   Martin Brehm           : Molecular dynamics
   Dmytro Bykov           : SCF Hessian
   Vijay G. Chilkuri      : MRCI spin determinant printing, contributions to CSF-ICE
   Dipayan Datta          : RHF DLPNO-CCSD density
   Achintya Kumar Dutta   : EOM-CC, STEOM-CC
   Dmitry Ganyushin       : Spin-Orbit,Spin-Spin,Magnetic field MRCI
   Miquel Garcia          : C-PCM and meta-GGA Hessian, CC/C-PCM, Gaussian charge scheme
   Yang Guo               : DLPNO-NEVPT2, F12-NEVPT2, CIM, IAO-localization
   Andreas Hansen         : Spin unrestricted coupled pair/coupled cluster methods
   Benjamin Helmich-Paris : MC-RPA, TRAH-SCF, COSX integrals
   Lee Huntington         : MR-EOM, pCC
   Robert Izsak           : Overlap fitted RIJCOSX, COSX-SCS-MP3, EOM
   Marcus Kettner         : VPT2
   Christian Kollmar      : KDIIS, OOCD, Brueckner-CCSD(T), CCSD density, CASPT2, CASPT2-K
   Simone Kossmann        : Meta GGA functionals, TD-DFT gradient, OOMP2, MP2 Hessian
   Martin Krupicka        : Initial AUTO-CI
   Lucas Lang             : DCDCAS
   Marvin Lechner         : AUTO-CI (C++ implementation), FIC-MRCC
   Dagmar Lenk            : GEPOL surface, SMD
   Dimitrios Liakos       : Extrapolation schemes; Compound Job, initial MDCI parallelization
   Dimitrios Manganas     : Further ROCIS development; embedding schemes
   Dimitrios Pantazis     : SARC Basis sets
   Anastasios Papadopoulos: AUTO-CI, single reference methods and gradients
   Taras Petrenko         : DFT Hessian,TD-DFT gradient, ASA, ECA, R-Raman, ABS, FL, XAS/XES, NRVS
   Peter Pinski           : DLPNO-MP2, DLPNO-MP2 Gradient
   Christoph Reimann      : Effective Core Potentials
   Marius Retegan         : Local ZFS, SOC
   Christoph Riplinger    : Optimizer, TS searches, QM/MM, DLPNO-CCSD(T), (RO)-DLPNO pert. Triples
   Tobias Risthaus        : Range-separated hybrids, TD-DFT gradient, RPA, STAB
   Michael Roemelt        : Original ROCIS implementation
   Masaaki Saitow         : Open-shell DLPNO-CCSD energy and density
   Barbara Sandhoefer     : DKH picture change effects
   Avijit Sen             : IP-ROCIS
   Kantharuban Sivalingam : CASSCF convergence, NEVPT2, FIC-MRCI
   Bernardo de Souza      : ESD, SOC TD-DFT
   Georgi Stoychev        : AutoAux, RI-MP2 NMR, DLPNO-MP2 response
   Willem Van den Heuvel  : Paramagnetic NMR
   Boris Wezisla          : Elementary symmetry handling
   Frank Wennmohs         : Technical directorship


 We gratefully acknowledge several colleagues who have allowed us to
 interface, adapt or use parts of their codes:
   Stefan Grimme, W. Hujo, H. Kruse, P. Pracht,  : VdW corrections, initial TS optimization,
                  C. Bannwarth, S. Ehlert          DFT functionals, gCP, sTDA/sTD-DF
   Ed Valeev, F. Pavosevic, A. Kumar             : LibInt (2-el integral package), F12 methods
   Garnet Chan, S. Sharma, J. Yang, R. Olivares  : DMRG
   Ulf Ekstrom                                   : XCFun DFT Library
   Mihaly Kallay                                 : mrcc  (arbitrary order and MRCC methods)
   Jiri Pittner, Ondrej Demel                    : Mk-CCSD
   Frank Weinhold                                : gennbo (NPA and NBO analysis)
   Christopher J. Cramer and Donald G. Truhlar   : smd solvation model
   Lars Goerigk                                  : TD-DFT with DH, B97 family of functionals
   V. Asgeirsson, H. Jonsson                     : NEB implementation
   FAccTs GmbH                                   : IRC, NEB, NEB-TS, DLPNO-Multilevel, CI-OPT
                                                   MM, QMMM, 2- and 3-layer-ONIOM, Crystal-QMMM,
                                                   LR-CPCM, SF, NACMEs, symmetry and pop. for TD-DFT,
                                                   nearIR, NL-DFT gradient (VV10), updates on ESD,
                                                   ML-optimized integration grids
   S Lehtola, MJT Oliveira, MAL Marques          : LibXC Library
   Liviu Ungur et al                             : ANISO software


 Your calculation uses the libint2 library for the computation of 2-el integrals
 For citations please refer to: http://libint.valeyev.net

 Your ORCA version has been built with support for libXC version: 5.1.0
 For citations please refer to: https://tddft.org/programs/libxc/

 This ORCA versions uses:
   CBLAS   interface :  Fast vector & matrix operations
   LAPACKE interface :  Fast linear algebra routines
   SCALAPACK package :  Parallel linear algebra routines
   Shared memory     :  Shared parallel matrices
   BLAS/LAPACK       :  OpenBLAS 0.3.15  USE64BITINT DYNAMIC_ARCH NO_AFFINITY Haswell SINGLE_THREADED
        Core in use  :  Haswell
   Copyright (c) 2011-2014, The OpenBLAS Project




***************************************
The coordinates will be read from file: 7p5.xyz
***************************************


Your calculation utilizes the geometrical counterpoise correction gCP
Please cite in your paper:
H.Kruse, S. Grimme J.Chem.Phys., 136, (2012), 154101 
   

Your calculation utilizes the atom-pairwise dispersion correction
with the Becke-Johnson damping scheme (D3BJ)
Cite in your paper:
S.Grimme, S.Ehrlich, L.Goerigk, J Comput Chem, (2011), 32, 1456–1465 
S.Grimme, J.Antony, S.Ehrlich and H.Krieg, J.Chem.Phys., 132, (2010), 154104 
   

Your calculation employs the composite approach PBEh-3c.
Please cite in your paper:
S. Grimme, J. G. Brandenburg, C. Bannwarth, A. Hansen J.Chem.Phys., 143, (2015), 054107 
   

================================================================================

----- Orbital basis set information -----
Your calculation utilizes the basis: def2-mSVP

----- AuxJ basis set information -----
Your calculation utilizes the auxiliary basis: def2/J
   F. Weigend, Phys. Chem. Chem. Phys. 8, 1057 (2006).

================================================================================
                                        WARNINGS
                       Please study these warnings very carefully!
================================================================================


INFO   : the flag for use of the SHARK integral package has been found!

================================================================================
                                       INPUT FILE
================================================================================
NAME = pbeh-3c.inp
|  1> ! PBEh-3c def2/J TightSCF DefGrid3
|  2> 
|  3> %maxcore 60000
|  4> 
|  5> %pal
|  6> nprocs 4
|  7> end
|  8> 
|  9> *xyzfile 1 1 7p5.xyz
| 10> 
| 11>                          ****END OF INPUT****
================================================================================

                       ****************************
                       * Single Point Calculation *
                       ****************************

---------------------------------
CARTESIAN COORDINATES (ANGSTROEM)
---------------------------------
  O     -2.463020    1.185181    0.000000
  C     -1.341806    1.203647    0.000000
  C      0.033890    1.252510    0.000000
  H      0.467256    2.248928    0.000000
  C      0.755287    0.100423    0.000000
  H      1.836173    0.226289    0.000000
  C      0.244163   -1.268123    0.000000
  H     -0.842428   -1.353314    0.000000
  H      0.655242   -1.797771    0.869468
  H      0.655242   -1.797771   -0.869468

----------------------------
CARTESIAN COORDINATES (A.U.)
----------------------------
  NO LB      ZA    FRAG     MASS         X           Y           Z
   0 O     8.0000    0    15.999   -4.654434    2.239667    0.000000
   1 C     6.0000    0    12.011   -2.535646    2.274564    0.000000
   2 C     6.0000    0    12.011    0.064043    2.366901    0.000000
   3 H     1.0000    0     1.008    0.882987    4.249858    0.000000
   4 C     6.0000    0    12.011    1.427285    0.189773    0.000000
   5 H     1.0000    0     1.008    3.469865    0.427625    0.000000
   6 C     6.0000    0    12.011    0.461401   -2.396404    0.000000
   7 H     1.0000    0     1.008   -1.591958   -2.557394    0.000000
   8 H     1.0000    0     1.008    1.238229   -3.397294    1.643056
   9 H     1.0000    0     1.008    1.238229   -3.397294   -1.643056

--------------------------------
INTERNAL COORDINATES (ANGSTROEM)
--------------------------------
 O      0   0   0     0.000000000000     0.00000000     0.00000000
 C      1   0   0     1.121366363790     0.00000000     0.00000000
 C      2   1   0     1.376563488581   178.90938384     0.00000000
 H      3   2   1     1.086579486930   115.53959276     0.00000000
 C      3   2   1     1.359307255073   120.01916437   180.00000000
 H      5   3   2     1.088190370762   115.41136512   180.00000000
 C      5   3   2     1.460878304081   127.46700503     0.00000000
 H      7   5   3     1.089925430380   114.96261382     0.00000000
 H      7   5   3     1.097947298633   108.71820122   236.73339851
 H      7   5   3     1.097947298633   108.71820122   123.26660149

---------------------------
INTERNAL COORDINATES (A.U.)
---------------------------
 O      0   0   0     0.000000000000     0.00000000     0.00000000
 C      1   0   0     2.119075323355     0.00000000     0.00000000
 C      2   1   0     2.601327999374   178.90938384     0.00000000
 H      3   2   1     2.053337653034   115.53959276     0.00000000
 C      3   2   1     2.568718443940   120.01916437   180.00000000
 H      5   3   2     2.056381782311   115.41136512   180.00000000
 C      5   3   2     2.760659909700   127.46700503     0.00000000
 H      7   5   3     2.059660569814   114.96261382     0.00000000
 H      7   5   3     2.074819703895   108.71820122   236.73339851
 H      7   5   3     2.074819703895   108.71820122   123.26660149

---------------------
BASIS SET INFORMATION
---------------------
There are 3 groups of distinct atoms

 Group   1 Type O   : 8s4p1d contracted to 4s2p1d pattern {5111/31/1}
 Group   2 Type C   : 8s4p1d contracted to 4s2p1d pattern {5111/31/1}
 Group   3 Type H   : 4s contracted to 2s pattern {31}

Atom   0O    basis set group =>   1
Atom   1C    basis set group =>   2
Atom   2C    basis set group =>   2
Atom   3H    basis set group =>   3
Atom   4C    basis set group =>   2
Atom   5H    basis set group =>   3
Atom   6C    basis set group =>   2
Atom   7H    basis set group =>   3
Atom   8H    basis set group =>   3
Atom   9H    basis set group =>   3
---------------------------------
AUXILIARY/J BASIS SET INFORMATION
---------------------------------
There are 3 groups of distinct atoms

 Group   1 Type O   : 12s5p4d2f1g contracted to 6s4p3d1f1g pattern {711111/2111/211/2/1}
 Group   2 Type C   : 12s5p4d2f1g contracted to 6s4p3d1f1g pattern {711111/2111/211/2/1}
 Group   3 Type H   : 5s2p1d contracted to 3s1p1d pattern {311/2/1}

Atom   0O    basis set group =>   1
Atom   1C    basis set group =>   2
Atom   2C    basis set group =>   2
Atom   3H    basis set group =>   3
Atom   4C    basis set group =>   2
Atom   5H    basis set group =>   3
Atom   6C    basis set group =>   2
Atom   7H    basis set group =>   3
Atom   8H    basis set group =>   3
Atom   9H    basis set group =>   3


           ************************************************************
           *        Program running with 4 parallel MPI-processes     *
           *              working on a common directory               *
           ************************************************************
------------------------------------------------------------------------------
                           ORCA GTO INTEGRAL CALCULATION
                           -- RI-GTO INTEGRALS CHOSEN --
------------------------------------------------------------------------------
------------------------------------------------------------------------------
                   ___                                                        
                  /   \      - P O W E R E D   B Y -                         
                 /     \                                                     
                 |  |  |   _    _      __       _____    __    __             
                 |  |  |  | |  | |    /  \     |  _  \  |  |  /  |          
                  \  \/   | |  | |   /    \    | | | |  |  | /  /          
                 / \  \   | |__| |  /  /\  \   | |_| |  |  |/  /          
                |  |  |   |  __  | /  /__\  \  |    /   |      \           
                |  |  |   | |  | | |   __   |  |    \   |  |\   \          
                \     /   | |  | | |  |  |  |  | |\  \  |  | \   \       
                 \___/    |_|  |_| |__|  |__|  |_| \__\ |__|  \__/        
                                                                              
                      - O R C A' S   B I G   F R I E N D -                    
                                      &                                       
                       - I N T E G R A L  F E E D E R -                       
                                                                              
 v1 FN, 2020, v2 2021                                                         
------------------------------------------------------------------------------


Reading SHARK input file pbeh-3c.SHARKINP.tmp ... ok
----------------------
SHARK INTEGRAL PACKAGE
----------------------

Number of atoms                             ...     10
Number of basis functions                   ...     85
Number of shells                            ...     45
Maximum angular momentum                    ...      2
Integral batch strategy                     ... SHARK/LIBINT Hybrid
RI-J (if used) integral strategy            ... SPLIT-RIJ (Revised 2003 algorithm where possible)
Printlevel                                  ...      1
Contraction scheme used                     ... SEGMENTED contraction
Coulomb Range Separation                    ... NOT USED
Exchange Range Separation                   ... NOT USED
Finite Nucleus Model                        ... NOT USED
Auxiliary Coulomb fitting basis             ... AVAILABLE
   # of basis functions in Aux-J            ...    300
   # of shells in Aux-J                     ...    100
   Maximum angular momentum in Aux-J        ...      4
Auxiliary J/K fitting basis                 ... NOT available
Auxiliary Correlation fitting basis         ... NOT available
Auxiliary 'external' fitting basis          ... NOT available
Integral threshold                          ...     2.500000e-11
Primitive cut-off                           ...     2.500000e-12
Primitive pair pre-selection threshold      ...     2.500000e-12

Calculating pre-screening integrals         ... done (  0.1 sec) Dimension = 45
Organizing shell pair data                  ... done (  0.3 sec)
Shell pair information
Total number of shell pairs                 ...      1035
Shell pairs after pre-screening             ...       978
Total number of primitive shell pairs       ...      3735
Primitive shell pairs kept                  ...      2696
          la=0 lb=0:    418 shell pairs
          la=1 lb=0:    296 shell pairs
          la=1 lb=1:     55 shell pairs
          la=2 lb=0:    144 shell pairs
          la=2 lb=1:     50 shell pairs
          la=2 lb=2:     15 shell pairs

Calculating one electron integrals          ... done (  0.0 sec)
Calculating RI/J V-Matrix + Cholesky decomp.... done (  0.5 sec)
Calculating Nuclear repulsion               ... done (  0.1 sec) ENN=    150.872714163654 Eh

SHARK setup successfully completed in   1.9 seconds

Maximum memory used throughout the entire GTOINT-calculation: 9.7 MB


           ************************************************************
           *        Program running with 4 parallel MPI-processes     *
           *              working on a common directory               *
           ************************************************************
-------------------------------------------------------------------------------
                                 ORCA SCF
-------------------------------------------------------------------------------

------------
SCF SETTINGS
------------
Hamiltonian:
 Density Functional     Method          .... DFT(GTOs)
 Exchange Functional    Exchange        .... PBE
   PBE kappa parameter   XKappa         ....  1.024500
   PBE mue parameter    XMuePBE         ....  0.123457
 Correlation Functional Correlation     .... PBE
   PBE beta parameter  CBetaPBE         ....  0.030000
 LDA part of GGA corr.  LDAOpt          .... PW91-LDA
 Gradients option       PostSCFGGA      .... off
 Hybrid DFT is turned on
   Fraction HF Exchange ScalHFX         ....  0.420000
   Scaling of DF-GGA-X  ScalDFX         ....  0.580000
   Scaling of DF-GGA-C  ScalDFC         ....  1.000000
   Scaling of DF-LDA-C  ScalLDAC        ....  1.000000
   Perturbative correction              ....  0.000000
   Density functional embedding theory  .... OFF
 RI-approximation to the Coulomb term is turned on
   Number of AuxJ basis functions       .... 300
   RIJ-ON(X) (HFX calculated with O(N)) .... on
   Number of AuxJ basis functions       .... 300
   RIJ-COSX (HFX calculated with COS-X)).... on


General Settings:
 Integral files         IntName         .... pbeh-3c
 Hartree-Fock type      HFTyp           .... RHF
 Total Charge           Charge          ....    1
 Multiplicity           Mult            ....    1
 Number of Electrons    NEL             ....   36
 Basis Dimension        Dim             ....   85
 Nuclear Repulsion      ENuc            ....    150.8727141637 Eh

Convergence Acceleration:
 DIIS                   CNVDIIS         .... on
   Start iteration      DIISMaxIt       ....    12
   Startup error        DIISStart       ....  0.200000
   # of expansion vecs  DIISMaxEq       ....     5
   Bias factor          DIISBfac        ....   1.050
   Max. coefficient     DIISMaxC        ....  10.000
 Trust-Rad. Augm. Hess. CNVTRAH         .... auto
   Auto Start mean grad. ratio tolernc. ....  1.125000
   Auto Start start iteration           ....    20
   Auto Start num. interpolation iter.  ....    10
   Max. Number of Micro iterations      ....    16
   Max. Number of Macro iterations      .... Maxiter - #DIIS iter
   Number of Davidson start vectors     ....     2
   Converg. threshold I  (grad. norm)   ....   1.000e-05
   Converg. threshold II (energy diff.) ....   1.000e-08
   Grad. Scal. Fac. for Micro threshold ....   0.100
   Minimum threshold for Micro iter.    ....   0.010
   NR start threshold (gradient norm)   ....   0.001
   Initial trust radius                 ....   0.400
   Minimum AH scaling param. (alpha)    ....   1.000
   Maximum AH scaling param. (alpha)    .... 1000.000
   Orbital update algorithm             .... Taylor
   White noise on init. David. guess    .... on
   Maximum white noise                  ....   0.010
   Quad. conv. algorithm                .... NR
   COSX micro iterations for RIJONX calc.... off
 SOSCF                  CNVSOSCF        .... on
   Start iteration      SOSCFMaxIt      ....   150
   Startup grad/error   SOSCFStart      ....  0.003300
 Level Shifting         CNVShift        .... on
   Level shift para.    LevelShift      ....    0.2500
   Turn off err/grad.   ShiftErr        ....    0.0010
 Zerner damping         CNVZerner       .... off
 Static damping         CNVDamp         .... on
   Fraction old density DampFac         ....    0.7000
   Max. Damping (<1)    DampMax         ....    0.9800
   Min. Damping (>=0)   DampMin         ....    0.0000
   Turn off err/grad.   DampErr         ....    0.1000
 Fernandez-Rico         CNVRico         .... off

SCF Procedure:
 Maximum # iterations   MaxIter         ....   125
 SCF integral mode      SCFMode         .... Direct
   Integral package                     .... SHARK and LIBINT hybrid scheme
 Reset frequency        DirectResetFreq ....    20
 Integral Threshold     Thresh          ....  2.500e-11 Eh
 Primitive CutOff       TCut            ....  2.500e-12 Eh

Convergence Tolerance:
 Convergence Check Mode ConvCheckMode   .... Total+1el-Energy
 Convergence forced     ConvForced      .... 0
 Energy Change          TolE            ....  1.000e-08 Eh
 1-El. energy change                    ....  1.000e-05 Eh
 Orbital Gradient       TolG            ....  1.000e-05
 Orbital Rotation angle TolX            ....  1.000e-05
 DIIS Error             TolErr          ....  5.000e-07


Diagonalization of the overlap matrix:
Smallest eigenvalue                        ... 2.490e-03
Time for diagonalization                   ...    0.002 sec
Threshold for overlap eigenvalues          ... 1.000e-08
Number of eigenvalues below threshold      ... 0
Time for construction of square roots      ...    0.227 sec
Total time needed                          ...    0.369 sec

--------------------------------
INITIAL GUESS: MINIMAL BASIS EHT
--------------------------------
The minimal basis has 30 functions
EHT matrix was diagonalized
Basis set overlap was calculated now projecting the orbitals
Using GuessMode=FMatrix for the initial guess
C*T matrix was formed
Effective Fockian was calculated
Effective Fockian was diagonalized
Initial density was built
                      ------------------
                      INITIAL GUESS DONE
                      ------------------
-------------------
DFT GRID GENERATION
-------------------

General Integration Accuracy     IntAcc      ... 4.959
Radial Grid Type                 RadialGrid  ... OptM3 with GC (2021)
Angular Grid (max. ang.)         AngularGrid ... 6 (Lebedev-590)
Angular grid pruning method      GridPruning ... 4 (adaptive)
Weight generation scheme         WeightScheme... Becke
Basis function cutoff            BFCut       ... 1.0000e-11
Integration weight cutoff        WCut        ... 1.0000e-14
Angular grids for H and He will be reduced by one unit
Partially contracted basis set               ... off
Rotationally invariant grid construction     ... off

Total number of grid points                  ...   116112
Total number of batches                      ...     1818
Average number of points per batch           ...       63
Average number of grid points per atom       ...    11611
Time for grid setup =    2.745 sec

--------------------
COSX GRID GENERATION
--------------------

GRIDX 1
-------
General Integration Accuracy     IntAcc      ... 4.020
Radial Grid Type                 RadialGrid  ... OptM3 with GC (2021)
Angular Grid (max. ang.)         AngularGrid ... 2 (Lebedev-110)
Angular grid pruning method      GridPruning ... 4 (adaptive)
Weight generation scheme         WeightScheme... Becke
Basis function cutoff            BFCut       ... 1.0000e-11
Integration weight cutoff        WCut        ... 1.0000e-14
Angular grids for H and He will be reduced by one unit
Partially contracted basis set               ... on
Rotationally invariant grid construction     ... off

Total number of grid points                  ...    13053
Total number of batches                      ...      208
Average number of points per batch           ...       62
Average number of grid points per atom       ...     1305
UseSFitting                                  ... on

GRIDX 2
-------
General Integration Accuracy     IntAcc      ... 4.338
Radial Grid Type                 RadialGrid  ... OptM3 with GC (2021)
Angular Grid (max. ang.)         AngularGrid ... 3 (Lebedev-194)
Angular grid pruning method      GridPruning ... 4 (adaptive)
Weight generation scheme         WeightScheme... Becke
Basis function cutoff            BFCut       ... 1.0000e-11
Integration weight cutoff        WCut        ... 1.0000e-14
Angular grids for H and He will be reduced by one unit
Partially contracted basis set               ... on
Rotationally invariant grid construction     ... off

Total number of grid points                  ...    28745
Total number of batches                      ...      453
Average number of points per batch           ...       63
Average number of grid points per atom       ...     2874
UseSFitting                                  ... on

GRIDX 3
-------
General Integration Accuracy     IntAcc      ... 4.871
Radial Grid Type                 RadialGrid  ... OptM3 with GC (2021)
Angular Grid (max. ang.)         AngularGrid ... 4 (Lebedev-302)
Angular grid pruning method      GridPruning ... 4 (adaptive)
Weight generation scheme         WeightScheme... Becke
Basis function cutoff            BFCut       ... 1.0000e-11
Integration weight cutoff        WCut        ... 1.0000e-14
Angular grids for H and He will be reduced by one unit
Partially contracted basis set               ... on
Rotationally invariant grid construction     ... off

Total number of grid points                  ...    55214
Total number of batches                      ...      869
Average number of points per batch           ...       63
Average number of grid points per atom       ...     5521
UseSFitting                                  ... on

Time for X-Grid setup             =    4.945 sec

--------------
SCF ITERATIONS
--------------
ITER       Energy         Delta-E        Max-DP      RMS-DP      [F,P]     Damp
               ***  Starting incremental Fock matrix formation  ***
  0   -229.1561186036   0.000000000000 0.11498265  0.00545461  0.5160111 0.7000
  1   -229.3853576748  -0.229239071164 0.07838535  0.00346434  0.3069543 0.7000
  2   -229.5179674290  -0.132609754228 0.05555300  0.00225066  0.2162484 0.7000
                               ***Turning on DIIS***
  3   -229.6119723164  -0.094004887379 0.03916256  0.00162894  0.1519588 0.7000
  4   -229.6789338590  -0.066961542551 0.02897397  0.00126649  0.1066912 0.7000
  5   -229.7260946458  -0.047160786872 0.07333375  0.00316892  0.0749616 0.0000
                      *** Initiating the SOSCF procedure ***
                           *** Shutting down DIIS ***
                      *** Re-Reading the Fockian *** 
                      *** Removing any level shift *** 
ITER      Energy       Delta-E        Grad      Rot      Max-DP    RMS-DP
  6   -229.83790289  -0.1118082490  0.001708  0.001708  0.004021  0.000149
               *** Restarting incremental Fock matrix formation ***
  7   -229.83795855  -0.0000556597  0.000806  0.001604  0.002306  0.000091
  8   -229.83796584  -0.0000072852  0.000743  0.001320  0.001879  0.000057
  9   -229.83797061  -0.0000047672  0.000337  0.000380  0.000669  0.000023
 10   -229.83797148  -0.0000008733  0.000112  0.000159  0.000275  0.000010
 11   -229.83797168  -0.0000002008  0.000042  0.000065  0.000106  0.000004
 12   -229.83797170  -0.0000000217  0.000009  0.000015  0.000018  0.000001
 13   -229.83797171  -0.0000000037  0.000003  0.000010  0.000006  0.000000
                  ***Gradient check signals convergence***
              ***Rediagonalizing the Fockian in SOSCF/NRSCF***

               *****************************************************
               *                     SUCCESS                       *
               *           SCF CONVERGED AFTER  14 CYCLES          *
               *****************************************************

Old exchange energy                            =    -12.749282170 Eh
New exchange energy                            =    -12.749278073 Eh
Exchange energy change after final integration =      0.000004097 Eh
Total energy after final integration           =   -229.837967609 Eh
Final COS-X integration done in                =     1.368 sec

----------------
TOTAL SCF ENERGY
----------------

Total Energy       :         -229.83796761 Eh           -6254.20906 eV

Components:
Nuclear Repulsion  :          150.87271416 Eh            4105.45527 eV
Electronic Energy  :         -380.71068177 Eh          -10359.66433 eV
One Electron Energy:         -600.03549719 Eh          -16327.79597 eV
Two Electron Energy:          219.32481542 Eh            5968.13164 eV
Max COSX asymmetry :            0.00000270 Eh               0.00007 eV

Virial components:
Potential Energy   :         -458.01680460 Eh          -12463.27087 eV
Kinetic Energy     :          228.17883700 Eh            6209.06182 eV
Virial Ratio       :            2.00727119


DFT components:
N(Alpha)           :       17.999999750917 electrons
N(Beta)            :       17.999999750917 electrons
N(Total)           :       35.999999501834 electrons
E(X)               :      -16.957762647474 Eh       
E(C)               :       -1.553510433172 Eh       
E(XC)              :      -18.511273080646 Eh       
DFET-embed. en.    :        0.000000000000 Eh       

---------------
SCF CONVERGENCE
---------------

  Last Energy change         ...    4.6214e-10  Tolerance :   1.0000e-08
  Last MAX-Density change    ...    1.1102e-15  Tolerance :   1.0000e-07
  Last RMS-Density change    ...    4.2230e-17  Tolerance :   5.0000e-09
  Last Orbital Gradient      ...    8.1807e-07  Tolerance :   1.0000e-05
  Last Orbital Rotation      ...    2.7094e-06  Tolerance :   1.0000e-05

             **** THE GBW FILE WAS UPDATED (pbeh-3c.gbw) ****
             **** DENSITY pbeh-3c.scfp WAS UPDATED ****
             **** ENERGY FILE WAS UPDATED (pbeh-3c.en.tmp) ****
             **** THE GBW FILE WAS UPDATED (pbeh-3c.gbw) ****
             **** DENSITY pbeh-3c.scfp WAS UPDATED ****
----------------
ORBITAL ENERGIES
----------------

  NO   OCC          E(Eh)            E(eV) 
   0   2.0000     -19.859253      -540.3977 
   1   2.0000     -10.865507      -295.6655 
   2   2.0000     -10.743696      -292.3508 
   3   2.0000     -10.719150      -291.6829 
   4   2.0000     -10.649245      -289.7807 
   5   2.0000      -1.533681       -41.7336 
   6   2.0000      -1.180061       -32.1111 
   7   2.0000      -1.058068       -28.7915 
   8   2.0000      -0.946346       -25.7514 
   9   2.0000      -0.858116       -23.3505 
  10   2.0000      -0.827731       -22.5237 
  11   2.0000      -0.794645       -21.6234 
  12   2.0000      -0.778937       -21.1960 
  13   2.0000      -0.752304       -20.4712 
  14   2.0000      -0.687525       -18.7085 
  15   2.0000      -0.677372       -18.4322 
  16   2.0000      -0.649571       -17.6757 
  17   2.0000      -0.572875       -15.5887 
  18   0.0000      -0.289938        -7.8896 
  19   0.0000      -0.249001        -6.7757 
  20   0.0000      -0.117591        -3.1998 
  21   0.0000      -0.058174        -1.5830 
  22   0.0000      -0.034993        -0.9522 
  23   0.0000      -0.008417        -0.2291 
  24   0.0000       0.009306         0.2532 
  25   0.0000       0.022993         0.6257 
  26   0.0000       0.029391         0.7998 
  27   0.0000       0.106196         2.8897 
  28   0.0000       0.142941         3.8896 
  29   0.0000       0.198066         5.3896 
  30   0.0000       0.245980         6.6935 
  31   0.0000       0.289844         7.8871 
  32   0.0000       0.302895         8.2422 
  33   0.0000       0.352845         9.6014 
  34   0.0000       0.358370         9.7517 
  35   0.0000       0.372097        10.1253 
  36   0.0000       0.390622        10.6294 
  37   0.0000       0.427033        11.6202 
  38   0.0000       0.437202        11.8969 
  39   0.0000       0.527097        14.3431 
  40   0.0000       0.583625        15.8813 
  41   0.0000       0.609343        16.5811 
  42   0.0000       0.703514        19.1436 
  43   0.0000       0.744633        20.2625 
  44   0.0000       0.781915        21.2770 
  45   0.0000       0.791563        21.5395 
  46   0.0000       0.819566        22.3015 
  47   0.0000       0.859389        23.3852 
  48   0.0000       0.861738        23.4491 
  49   0.0000       0.891120        24.2486 
  50   0.0000       0.921538        25.0763 
  51   0.0000       0.957624        26.0583 
  52   0.0000       0.979726        26.6597 
  53   0.0000       1.119259        30.4566 
  54   0.0000       1.180208        32.1151 
  55   0.0000       1.203260        32.7424 
  56   0.0000       1.295082        35.2410 
  57   0.0000       1.298873        35.3441 
  58   0.0000       1.340799        36.4850 
  59   0.0000       1.432740        38.9868 
  60   0.0000       1.575517        42.8720 
  61   0.0000       1.669999        45.4430 
  62   0.0000       1.722033        46.8589 
  63   0.0000       1.744202        47.4622 
  64   0.0000       1.772253        48.2255 
  65   0.0000       1.808030        49.1990 
  66   0.0000       1.870949        50.9111 
  67   0.0000       1.881170        51.1892 
  68   0.0000       1.885640        51.3109 
  69   0.0000       2.071572        56.3703 
  70   0.0000       2.131068        57.9893 
  71   0.0000       2.150885        58.5286 
  72   0.0000       2.222124        60.4671 
  73   0.0000       2.315733        63.0143 
  74   0.0000       2.471408        67.2504 
  75   0.0000       2.525154        68.7129 
  76   0.0000       2.680006        72.9267 
  77   0.0000       2.715681        73.8974 
  78   0.0000       2.936658        79.9105 
  79   0.0000       3.126556        85.0779 
  80   0.0000      13.063370       355.4724 
  81   0.0000      13.529559       368.1580 
  82   0.0000      13.743882       373.9901 
  83   0.0000      14.100948       383.7063 
  84   0.0000      25.435372       692.1317 

                    ********************************
                    * MULLIKEN POPULATION ANALYSIS *
                    ********************************

-----------------------
MULLIKEN ATOMIC CHARGES
-----------------------
   0 O :   -0.019451
   1 C :    0.514661
   2 C :   -0.370338
   3 H :    0.388645
   4 C :   -0.043071
   5 H :    0.342180
   6 C :   -0.724458
   7 H :    0.262434
   8 H :    0.324699
   9 H :    0.324698
Sum of atomic charges:    1.0000000

--------------------------------
MULLIKEN REDUCED ORBITAL CHARGES
--------------------------------
  0 O s       :     3.764895  s :     3.764895
      pz      :     1.470205  p :     4.211910
      px      :     1.372353
      py      :     1.369352
      dz2     :     0.002740  d :     0.042646
      dxz     :     0.015459
      dyz     :     0.000002
      dx2y2   :     0.008071
      dxy     :     0.016374
  1 C s       :     3.107203  s :     3.107203
      pz      :     0.734988  p :     2.287822
      px      :     0.912987
      py      :     0.639847
      dz2     :     0.006493  d :     0.090314
      dxz     :     0.037316
      dyz     :     0.000018
      dx2y2   :     0.018124
      dxy     :     0.028363
  2 C s       :     3.239615  s :     3.239615
      pz      :     1.185716  p :     3.094469
      px      :     0.780665
      py      :     1.128089
      dz2     :     0.004432  d :     0.036253
      dxz     :     0.002280
      dyz     :     0.003129
      dx2y2   :     0.019063
      dxy     :     0.007349
  3 H s       :     0.611355  s :     0.611355
  4 C s       :     3.309589  s :     3.309589
      pz      :     0.627789  p :     2.688981
      px      :     1.152803
      py      :     0.908389
      dz2     :     0.003759  d :     0.044501
      dxz     :     0.002487
      dyz     :     0.010480
      dx2y2   :     0.015853
      dxy     :     0.011922
  5 H s       :     0.657820  s :     0.657820
  6 C s       :     3.443538  s :     3.443538
      pz      :     1.192809  p :     3.246285
      px      :     1.142930
      py      :     0.910547
      dz2     :     0.007208  d :     0.034634
      dxz     :     0.005046
      dyz     :     0.005801
      dx2y2   :     0.010744
      dxy     :     0.005836
  7 H s       :     0.737566  s :     0.737566
  8 H s       :     0.675301  s :     0.675301
  9 H s       :     0.675302  s :     0.675302


                     *******************************
                     * LOEWDIN POPULATION ANALYSIS *
                     *******************************

----------------------
LOEWDIN ATOMIC CHARGES
----------------------
   0 O :    0.162294
   1 C :    0.372546
   2 C :   -0.250903
   3 H :    0.227466
   4 C :    0.090148
   5 H :    0.194075
   6 C :   -0.356160
   7 H :    0.157081
   8 H :    0.201727
   9 H :    0.201727

-------------------------------
LOEWDIN REDUCED ORBITAL CHARGES
-------------------------------
  0 O s       :     3.484844  s :     3.484844
      pz      :     1.437685  p :     4.282416
      px      :     1.505320
      py      :     1.339410
      dz2     :     0.007678  d :     0.070447
      dxz     :     0.020319
      dyz     :     0.000004
      dx2y2   :     0.022898
      dxy     :     0.019548
  1 C s       :     2.908396  s :     2.908396
      pz      :     0.745254  p :     2.529447
      px      :     1.122213
      py      :     0.661979
      dz2     :     0.014772  d :     0.189612
      dxz     :     0.074504
      dyz     :     0.000024
      dx2y2   :     0.043955
      dxy     :     0.056357
  2 C s       :     2.892313  s :     2.892313
      pz      :     1.143539  p :     3.271775
      px      :     1.000688
      py      :     1.127548
      dz2     :     0.008360  d :     0.086815
      dxz     :     0.004735
      dyz     :     0.004188
      dx2y2   :     0.048333
      dxy     :     0.021199
  3 H s       :     0.772534  s :     0.772534
  4 C s       :     2.930873  s :     2.930873
      pz      :     0.648627  p :     2.885168
      px      :     1.132102
      py      :     1.104439
      dz2     :     0.005919  d :     0.093810
      dxz     :     0.003961
      dyz     :     0.020051
      dx2y2   :     0.035363
      dxy     :     0.028516
  5 H s       :     0.805925  s :     0.805925
  6 C s       :     2.945784  s :     2.945784
      pz      :     1.155945  p :     3.343223
      px      :     1.140181
      py      :     1.047097
      dz2     :     0.012718  d :     0.067153
      dxz     :     0.006845
      dyz     :     0.011146
      dx2y2   :     0.022625
      dxy     :     0.013819
  7 H s       :     0.842919  s :     0.842919
  8 H s       :     0.798273  s :     0.798273
  9 H s       :     0.798273  s :     0.798273


                      *****************************
                      * MAYER POPULATION ANALYSIS *
                      *****************************

  NA   - Mulliken gross atomic population
  ZA   - Total nuclear charge
  QA   - Mulliken gross atomic charge
  VA   - Mayer's total valence
  BVA  - Mayer's bonded valence
  FA   - Mayer's free valence

  ATOM       NA         ZA         QA         VA         BVA        FA
  0 O      8.0195     8.0000    -0.0195     2.6620     2.6620     0.0000
  1 C      5.4853     6.0000     0.5147     3.8318     3.8318     0.0000
  2 C      6.3703     6.0000    -0.3703     3.6064     3.6064     0.0000
  3 H      0.6114     1.0000     0.3886     0.8292     0.8292     0.0000
  4 C      6.0431     6.0000    -0.0431     3.5664     3.5664     0.0000
  5 H      0.6578     1.0000     0.3422     0.8545     0.8545     0.0000
  6 C      6.7245     6.0000    -0.7245     3.6344     3.6344     0.0000
  7 H      0.7376     1.0000     0.2624     0.8997     0.8997    -0.0000
  8 H      0.6753     1.0000     0.3247     0.8627     0.8627     0.0000
  9 H      0.6753     1.0000     0.3247     0.8627     0.8627     0.0000

  Mayer bond orders larger than 0.100000
B(  0-O ,  1-C ) :   2.5298 B(  1-C ,  2-C ) :   1.2166 B(  2-C ,  3-H ) :   0.8192 
B(  2-C ,  4-C ) :   1.5427 B(  4-C ,  5-H ) :   0.8620 B(  4-C ,  6-C ) :   1.0469 
B(  6-C ,  7-H ) :   0.9050 B(  6-C ,  8-H ) :   0.8493 B(  6-C ,  9-H ) :   0.8493 


-------
TIMINGS
-------

Total SCF time: 0 days 0 hours 1 min 41 sec 

Total time                  ....     101.336 sec
Sum of individual times     ....      89.984 sec  ( 88.8%)

Fock matrix formation       ....      76.761 sec  ( 75.7%)
  Split-RI-J                ....       9.133 sec  ( 11.9% of F)
  Chain of spheres X        ....      15.373 sec  ( 20.0% of F)
  XC integration            ....      26.720 sec  ( 34.8% of F)
    Basis function eval.    ....       2.375 sec  (  8.9% of XC)
    Density eval.           ....       1.764 sec  (  6.6% of XC)
    XC-Functional eval.     ....       1.358 sec  (  5.1% of XC)
    XC-Potential eval.      ....       0.763 sec  (  2.9% of XC)
Diagonalization             ....       1.274 sec  (  1.3%)
Density matrix formation    ....       0.042 sec  (  0.0%)
Population analysis         ....       0.964 sec  (  1.0%)
Initial guess               ....       0.036 sec  (  0.0%)
Orbital Transformation      ....       0.000 sec  (  0.0%)
Orbital Orthonormalization  ....       0.000 sec  (  0.0%)
DIIS solution               ....       1.841 sec  (  1.8%)
SOSCF solution              ....       1.375 sec  (  1.4%)
Grid generation             ....       7.690 sec  (  7.6%)

Maximum memory used throughout the entire SCF-calculation: 48.7 MB


-------------------------------------------------------------------------------
                          DFT DISPERSION CORRECTION                            
                                                                               
                              DFTD3 V3.1  Rev 1                                
                          USING Becke-Johnson damping                          
-------------------------------------------------------------------------------
The PBEh-3c composite method is recognized
Using three-body term ABC
Active option DFTDOPT                   ...         4   

molecular C6(AA) [au] = 1028.338273 


            DFT-D V3
 parameters
 s6 scaling factor         :     1.0000 
 a1 scaling factor         :     0.4860 
 s8 scaling factor         :     0.0000 
 a2 scaling factor         :     4.5000 
 Damping factor alpha9(ATM):    16.0000 
 ad hoc parameters k1-k3   :    16.0000     1.3333    -4.0000 

 Edisp/kcal,au: -2.381294594772  -0.003794834085 
 E6   /kcal   :  -2.386186493 
 E8   /kcal   :  -0.000000000 
 E6(ABC)      :   0.004891898 
 % E8         :   0.000000000 
 % E6(ABC)    :  -0.205430183 

-------------------------   ----------------
Dispersion correction           -0.003794834
-------------------------   ----------------

------------------   -----------------
gCP correction             0.010682819
------------------   -----------------

-------------------------   --------------------
FINAL SINGLE POINT ENERGY      -229.831079623664
-------------------------   --------------------


                            ***************************************
                            *     ORCA property calculations      *
                            ***************************************

                                    ---------------------
                                    Active property flags
                                    ---------------------
   (+) Dipole Moment


------------------------------------------------------------------------------
                       ORCA ELECTRIC PROPERTIES CALCULATION
------------------------------------------------------------------------------

Dipole Moment Calculation                       ... on
Quadrupole Moment Calculation                   ... off
Polarizability Calculation                      ... off
GBWName                                         ... pbeh-3c.gbw
Electron density                                ... pbeh-3c.scfp
The origin for moment calculation is the CENTER OF MASS  = (-1.102854,  0.873809  0.000000)

-------------
DIPOLE MOMENT
-------------
                                X             Y             Z
Electronic contribution:     -4.30575       4.45168      -0.00000
Nuclear contribution   :      5.30997      -4.47908       0.00000
                        -----------------------------------------
Total Dipole Moment    :      1.00422      -0.02741      -0.00000
                        -----------------------------------------
Magnitude (a.u.)       :      1.00460
Magnitude (Debye)      :      2.55348



--------------------
Rotational spectrum 
--------------------
 
Rotational constants in cm-1:     0.400821     0.115607     0.091207 
Rotational constants in MHz : 12016.319495  3465.809800  2734.319371 

 Dipole components along the rotational axes: 
x,y,z [a.u.] :    -0.825590     0.572377    -0.000000 
x,y,z [Debye]:    -2.098484     1.454867    -0.000000 

 

Timings for individual modules:

Sum of individual times         ...      105.469 sec (=   1.758 min)
GTO integral calculation        ...        2.879 sec (=   0.048 min)   2.7 %
SCF iterations                  ...      102.590 sec (=   1.710 min)  97.3 %
                             ****ORCA TERMINATED NORMALLY****
TOTAL RUN TIME: 0 days 0 hours 1 minutes 59 seconds 924 msec
