
                                 *****************
                                 * O   R   C   A *
                                 *****************

                                            #,                                       
                                            ###                                      
                                            ####                                     
                                            #####                                    
                                            ######                                   
                                           ########,                                 
                                     ,,################,,,,,                         
                               ,,#################################,,                 
                          ,,##########################################,,             
                       ,#########################################, ''#####,          
                    ,#############################################,,   '####,        
                  ,##################################################,,,,####,       
                ,###########''''           ''''###############################       
              ,#####''   ,,,,##########,,,,          '''####'''          '####       
            ,##' ,,,,###########################,,,                        '##       
           ' ,,###''''                  '''############,,,                           
         ,,##''                                '''############,,,,        ,,,,,,###''
      ,#''                                            '''#######################'''  
     '                                                          ''''####''''         
             ,#######,   #######,   ,#######,      ##                                
            ,#'     '#,  ##    ##  ,#'     '#,    #''#        ######   ,####,        
            ##       ##  ##   ,#'  ##            #'  '#       #        #'  '#        
            ##       ##  #######   ##           ,######,      #####,   #    #        
            '#,     ,#'  ##    ##  '#,     ,#' ,#      #,         ##   #,  ,#        
             '#######'   ##     ##  '#######'  #'      '#     #####' # '####'        



                  #######################################################
                  #                        -***-                        #
                  #          Department of theory and spectroscopy      #
                  #    Directorship and core code : Frank Neese         #
                  #        Max Planck Institute fuer Kohlenforschung    #
                  #                Kaiser Wilhelm Platz 1               #
                  #                 D-45470 Muelheim/Ruhr               #
                  #                      Germany                        #
                  #                                                     #
                  #                  All rights reserved                #
                  #                        -***-                        #
                  #######################################################


                         Program Version 5.0.3 -  RELEASE  -


 With contributions from (in alphabetic order):
   Daniel Aravena         : Magnetic Suceptibility
   Michael Atanasov       : Ab Initio Ligand Field Theory (pilot matlab implementation)
   Alexander A. Auer      : GIAO ZORA, VPT2 properties, NMR spectrum
   Ute Becker             : Parallelization
   Giovanni Bistoni       : ED, misc. LED, open-shell LED, HFLD
   Martin Brehm           : Molecular dynamics
   Dmytro Bykov           : SCF Hessian
   Vijay G. Chilkuri      : MRCI spin determinant printing, contributions to CSF-ICE
   Dipayan Datta          : RHF DLPNO-CCSD density
   Achintya Kumar Dutta   : EOM-CC, STEOM-CC
   Dmitry Ganyushin       : Spin-Orbit,Spin-Spin,Magnetic field MRCI
   Miquel Garcia          : C-PCM and meta-GGA Hessian, CC/C-PCM, Gaussian charge scheme
   Yang Guo               : DLPNO-NEVPT2, F12-NEVPT2, CIM, IAO-localization
   Andreas Hansen         : Spin unrestricted coupled pair/coupled cluster methods
   Benjamin Helmich-Paris : MC-RPA, TRAH-SCF, COSX integrals
   Lee Huntington         : MR-EOM, pCC
   Robert Izsak           : Overlap fitted RIJCOSX, COSX-SCS-MP3, EOM
   Marcus Kettner         : VPT2
   Christian Kollmar      : KDIIS, OOCD, Brueckner-CCSD(T), CCSD density, CASPT2, CASPT2-K
   Simone Kossmann        : Meta GGA functionals, TD-DFT gradient, OOMP2, MP2 Hessian
   Martin Krupicka        : Initial AUTO-CI
   Lucas Lang             : DCDCAS
   Marvin Lechner         : AUTO-CI (C++ implementation), FIC-MRCC
   Dagmar Lenk            : GEPOL surface, SMD
   Dimitrios Liakos       : Extrapolation schemes; Compound Job, initial MDCI parallelization
   Dimitrios Manganas     : Further ROCIS development; embedding schemes
   Dimitrios Pantazis     : SARC Basis sets
   Anastasios Papadopoulos: AUTO-CI, single reference methods and gradients
   Taras Petrenko         : DFT Hessian,TD-DFT gradient, ASA, ECA, R-Raman, ABS, FL, XAS/XES, NRVS
   Peter Pinski           : DLPNO-MP2, DLPNO-MP2 Gradient
   Christoph Reimann      : Effective Core Potentials
   Marius Retegan         : Local ZFS, SOC
   Christoph Riplinger    : Optimizer, TS searches, QM/MM, DLPNO-CCSD(T), (RO)-DLPNO pert. Triples
   Tobias Risthaus        : Range-separated hybrids, TD-DFT gradient, RPA, STAB
   Michael Roemelt        : Original ROCIS implementation
   Masaaki Saitow         : Open-shell DLPNO-CCSD energy and density
   Barbara Sandhoefer     : DKH picture change effects
   Avijit Sen             : IP-ROCIS
   Kantharuban Sivalingam : CASSCF convergence, NEVPT2, FIC-MRCI
   Bernardo de Souza      : ESD, SOC TD-DFT
   Georgi Stoychev        : AutoAux, RI-MP2 NMR, DLPNO-MP2 response
   Willem Van den Heuvel  : Paramagnetic NMR
   Boris Wezisla          : Elementary symmetry handling
   Frank Wennmohs         : Technical directorship


 We gratefully acknowledge several colleagues who have allowed us to
 interface, adapt or use parts of their codes:
   Stefan Grimme, W. Hujo, H. Kruse, P. Pracht,  : VdW corrections, initial TS optimization,
                  C. Bannwarth, S. Ehlert          DFT functionals, gCP, sTDA/sTD-DF
   Ed Valeev, F. Pavosevic, A. Kumar             : LibInt (2-el integral package), F12 methods
   Garnet Chan, S. Sharma, J. Yang, R. Olivares  : DMRG
   Ulf Ekstrom                                   : XCFun DFT Library
   Mihaly Kallay                                 : mrcc  (arbitrary order and MRCC methods)
   Jiri Pittner, Ondrej Demel                    : Mk-CCSD
   Frank Weinhold                                : gennbo (NPA and NBO analysis)
   Christopher J. Cramer and Donald G. Truhlar   : smd solvation model
   Lars Goerigk                                  : TD-DFT with DH, B97 family of functionals
   V. Asgeirsson, H. Jonsson                     : NEB implementation
   FAccTs GmbH                                   : IRC, NEB, NEB-TS, DLPNO-Multilevel, CI-OPT
                                                   MM, QMMM, 2- and 3-layer-ONIOM, Crystal-QMMM,
                                                   LR-CPCM, SF, NACMEs, symmetry and pop. for TD-DFT,
                                                   nearIR, NL-DFT gradient (VV10), updates on ESD,
                                                   ML-optimized integration grids
   S Lehtola, MJT Oliveira, MAL Marques          : LibXC Library
   Liviu Ungur et al                             : ANISO software


 Your calculation uses the libint2 library for the computation of 2-el integrals
 For citations please refer to: http://libint.valeyev.net

 Your ORCA version has been built with support for libXC version: 5.1.0
 For citations please refer to: https://tddft.org/programs/libxc/

 This ORCA versions uses:
   CBLAS   interface :  Fast vector & matrix operations
   LAPACKE interface :  Fast linear algebra routines
   SCALAPACK package :  Parallel linear algebra routines
   Shared memory     :  Shared parallel matrices
   BLAS/LAPACK       :  OpenBLAS 0.3.15  USE64BITINT DYNAMIC_ARCH NO_AFFINITY Haswell SINGLE_THREADED
        Core in use  :  Haswell
   Copyright (c) 2011-2014, The OpenBLAS Project




***************************************
The coordinates will be read from file: i23p.xyz
***************************************


Your calculation utilizes the geometrical counterpoise correction gCP
Please cite in your paper:
H.Kruse, S. Grimme J.Chem.Phys., 136, (2012), 154101 
   

Your calculation utilizes the atom-pairwise dispersion correction
with the Becke-Johnson damping scheme (D3BJ)
Cite in your paper:
S.Grimme, S.Ehrlich, L.Goerigk, J Comput Chem, (2011), 32, 1456–1465 
S.Grimme, J.Antony, S.Ehrlich and H.Krieg, J.Chem.Phys., 132, (2010), 154104 
   

Your calculation employs the composite approach PBEh-3c.
Please cite in your paper:
S. Grimme, J. G. Brandenburg, C. Bannwarth, A. Hansen J.Chem.Phys., 143, (2015), 054107 
   

================================================================================

----- Orbital basis set information -----
Your calculation utilizes the basis: def2-mSVP

----- AuxJ basis set information -----
Your calculation utilizes the auxiliary basis: def2/J
   F. Weigend, Phys. Chem. Chem. Phys. 8, 1057 (2006).

================================================================================
                                        WARNINGS
                       Please study these warnings very carefully!
================================================================================


INFO   : the flag for use of the SHARK integral package has been found!

================================================================================
                                       INPUT FILE
================================================================================
NAME = pbeh-3c.inp
|  1> ! PBEh-3c def2/J TightSCF DefGrid3
|  2> 
|  3> %maxcore 60000
|  4> 
|  5> %pal
|  6> nprocs 4
|  7> end
|  8> 
|  9> *xyzfile 1 1 i23p.xyz
| 10> 
| 11>                          ****END OF INPUT****
================================================================================

                       ****************************
                       * Single Point Calculation *
                       ****************************

---------------------------------
CARTESIAN COORDINATES (ANGSTROEM)
---------------------------------
  C      1.253010    0.596370    0.669666
  C      2.138984   -0.713233    0.885711
  C      2.694386   -1.036775   -0.531511
  C      2.047549    0.057201   -1.409056
  C      0.498133   -0.147168   -1.545825
  C      0.045740    0.107907   -0.097239
  C      2.093367    1.259999   -0.470472
  C      1.093938    1.520302    1.879205
  C     -0.019881    0.934874   -2.556372
  C      0.112306   -1.551594   -2.053725
  C     -2.985623   -0.152878    2.175270
  C     -1.626853   -0.301620    1.784755
  C     -1.257769   -0.104198    0.382361
  C     -2.356489   -0.053864   -0.554175
  C     -3.659937    0.024460   -0.142868
  C     -3.980303    0.011441    1.242651
  H      2.928684   -0.448546    1.598373
  H      1.582976   -1.566080    1.296903
  H      2.455318   -2.052018   -0.857629
  H      3.783407   -0.927501   -0.553639
  H      2.517426    0.176566   -2.388530
  H      3.096161    1.500989   -0.100999
  H      1.630516    2.170046   -0.861852
  H      0.874644    1.015759    2.822983
  H      2.037424    2.060474    2.018762
  H      0.302897    2.258352    1.699991
  H     -0.128051    1.923160   -2.100345
  H      0.701520    1.010839   -3.377528
  H     -0.980889    0.652067   -2.995286
  H      0.382233   -2.332321   -1.334970
  H     -0.959662   -1.631862   -2.255051
  H      0.649892   -1.744910   -2.990149
  H     -3.238579   -0.229348    3.230635
  N     -0.754189   -0.734293    2.709046
  H     -2.143541    0.024544   -1.607448
  Cl    -4.954597    0.178464   -1.308181
  H     -5.016501    0.105046    1.557222
  H      0.203608   -0.948511    2.483479
  H     -1.061255   -0.912138    3.655839

----------------------------
CARTESIAN COORDINATES (A.U.)
----------------------------
  NO LB      ZA    FRAG     MASS         X           Y           Z
   0 C     6.0000    0    12.011    2.367845    1.126975    1.265485
   1 C     6.0000    0    12.011    4.042093   -1.347814    1.673751
   2 C     6.0000    0    12.011    5.091652   -1.959220   -1.004410
   3 C     6.0000    0    12.011    3.869306    0.108095   -2.662729
   4 C     6.0000    0    12.011    0.941336   -0.278107   -2.921186
   5 C     6.0000    0    12.011    0.086436    0.203915   -0.183755
   6 C     6.0000    0    12.011    3.955891    2.381054   -0.889064
   7 C     6.0000    0    12.011    2.067244    2.872954    3.551182
   8 C     6.0000    0    12.011   -0.037569    1.766655   -4.830843
   9 C     6.0000    0    12.011    0.212228   -2.932089   -3.880978
  10 C     6.0000    0    12.011   -5.642011   -0.288897    4.110665
  11 C     6.0000    0    12.011   -3.074307   -0.569979    3.372697
  12 C     6.0000    0    12.011   -2.376839   -0.196905    0.722558
  13 C     6.0000    0    12.011   -4.453118   -0.101788   -1.047240
  14 C     6.0000    0    12.011   -6.916280    0.046223   -0.269981
  15 C     6.0000    0    12.011   -7.521682    0.021620    2.348270
  16 H     1.0000    0     1.008    5.534411   -0.847629    3.020488
  17 H     1.0000    0     1.008    2.991390   -2.959462    2.450792
  18 H     1.0000    0     1.008    4.639879   -3.877751   -1.620685
  19 H     1.0000    0     1.008    7.149603   -1.752723   -1.046225
  20 H     1.0000    0     1.008    4.757246    0.333662   -4.513669
  21 H     1.0000    0     1.008    5.850896    2.836458   -0.190860
  22 H     1.0000    0     1.008    3.081229    4.100792   -1.628665
  23 H     1.0000    0     1.008    1.652837    1.919506    5.334664
  24 H     1.0000    0     1.008    3.850174    3.893731    3.814906
  25 H     1.0000    0     1.008    0.572392    4.267666    3.212517
  26 H     1.0000    0     1.008   -0.241982    3.634245   -3.969077
  27 H     1.0000    0     1.008    1.325681    1.910209   -6.382603
  28 H     1.0000    0     1.008   -1.853612    1.232229   -5.660270
  29 H     1.0000    0     1.008    0.722316   -4.407449   -2.522727
  30 H     1.0000    0     1.008   -1.813499   -3.083773   -4.261430
  31 H     1.0000    0     1.008    1.228118   -3.297403   -5.650562
  32 H     1.0000    0     1.008   -6.120027   -0.433404    6.105015
  33 N     7.0000    0    14.007   -1.425212   -1.387613    5.119354
  34 H     1.0000    0     1.008   -4.050706    0.046381   -3.037636
  35 Cl   17.0000    0    35.453   -9.362831    0.337248   -2.472103
  36 H     1.0000    0     1.008   -9.479813    0.198508    2.942724
  37 H     1.0000    0     1.008    0.384764   -1.792427    4.693094
  38 H     1.0000    0     1.008   -2.005481   -1.723691    6.908534

--------------------------------
INTERNAL COORDINATES (ANGSTROEM)
--------------------------------
 C      0   0   0     0.000000000000     0.00000000     0.00000000
 C      1   0   0     1.595833307841     0.00000000     0.00000000
 C      2   1   0     1.556171408425   104.20965521     0.00000000
 C      3   2   1     1.544430999797   102.75119133   357.98364041
 C      4   3   2     1.568808488515   111.77130942   291.22221015
 C      1   2   3     1.511370085969   104.29677873    71.06421966
 C      4   3   2     1.526355525424   101.31567363    37.72603905
 C      1   2   3     1.530339446568   116.49768916   207.01561247
 C      5   4   3     1.568552423379   107.00582803   185.10937151
 C      5   4   3     1.542478378722   113.22606330   305.81211348
 C      6   1   2     3.797560930392   110.86532082   103.92094008
 C     11   6   1     1.421577742372    23.04843827   315.86307098
 C      6   1   2     1.405041032818   128.07210045   104.63064722
 C     13   6   1     1.444582589059   118.62417319   155.70763603
 C     14  13   6     1.369046104965   122.09709770   193.63731580
 C     11   6   1     1.373377407831    99.41307137   153.66787989
 H      2   1   3     1.096162873635   106.84741849   119.46084945
 H      2   1   3     1.097985405042   114.01550543   238.68679464
 H      3   2   1     1.092805836904   112.75872329   235.55823730
 H      3   2   1     1.094713135539   110.65269635   114.84002661
 H      4   3   2     1.092887786454   113.98717096   164.14746046
 H      7   4   3     1.095527889734   114.09228414    56.09896578
 H      7   4   3     1.093432117107   115.02712511   183.09794530
 H      8   1   2     1.092414839812   115.14143426   315.12134550
 H      8   1   2     1.096096276830   107.98043428    74.43452472
 H      8   1   2     1.096623217935   110.61865061   192.49342274
 H      9   5   4     1.093787294345   112.78977805   281.09580015
 H      9   5   4     1.095667462002   108.25391010    40.98221626
 H      9   5   4     1.093692186519   111.73760358   158.80286268
 H     10   5   4     1.094990570168   111.80120146    65.46768281
 H     10   5   4     1.093659684594   111.87687792   186.83650948
 H     10   5   4     1.096931572832   108.60054200   306.04028192
 H     11   6   1     1.087946981890   140.43608866   339.74508347
 N     12  11   6     1.342781402278   117.76219531   173.04036149
 H     14  13   6     1.077440049221   119.07672367     7.35218731
 Cl    15  14  13     1.748660631034   120.64555709   176.36844741
 H     16  11   6     1.086933232916   120.27989285   186.89261571
 H     34  12  11     1.007048618377   122.17258068   173.94584523
 H     34  12  11     1.011106040075   120.25613067   357.83754133

---------------------------
INTERNAL COORDINATES (A.U.)
---------------------------
 C      0   0   0     0.000000000000     0.00000000     0.00000000
 C      1   0   0     3.015687907209     0.00000000     0.00000000
 C      2   1   0     2.940737779361   104.20965521     0.00000000
 C      3   2   1     2.918551622355   102.75119133   357.98364041
 C      4   3   2     2.964618399864   111.77130942   291.22221015
 C      1   2   3     2.856075549482   104.29677873    71.06421966
 C      4   3   2     2.884393926049   101.31567363    37.72603905
 C      1   2   3     2.891922445950   116.49768916   207.01561247
 C      5   4   3     2.964134506886   107.00582803   185.10937151
 C      5   4   3     2.914861703279   113.22606330   305.81211348
 C      6   1   2     7.176350135319   110.86532082   103.92094008
 C     11   6   1     2.686392611162    23.04843827   315.86307098
 C      6   1   2     2.655142758947   128.07210045   104.63064722
 C     13   6   1     2.729865471152   118.62417319   155.70763603
 C     14  13   6     2.587122203095   122.09709770   193.63731580
 C     11   6   1     2.595307179315    99.41307137   153.66787989
 H      2   1   3     2.071447629343   106.84741849   119.46084945
 H      2   1   3     2.074891714571   114.01550543   238.68679464
 H      3   2   1     2.065103749299   112.75872329   235.55823730
 H      3   2   1     2.068708021374   110.65269635   114.84002661
 H      4   3   2     2.065258611506   113.98717096   164.14746046
 H      7   4   3     2.070247683670   114.09228414    56.09896578
 H      7   4   3     2.066287247367   115.02712511   183.09794530
 H      8   1   2     2.064364871876   115.14143426   315.12134550
 H      8   1   2     2.071321779619   107.98043428    74.43452472
 H      8   1   2     2.072317553997   110.61865061   192.49342274
 H      9   5   4     2.066958435075   112.78977805   281.09580015
 H      9   5   4     2.070511437032   108.25391010    40.98221626
 H      9   5   4     2.066778707330   111.73760358   158.80286268
 H     10   5   4     2.069232296843   111.80120146    65.46768281
 H     10   5   4     2.066717287593   111.87687792   186.83650948
 H     10   5   4     2.072900260304   108.60054200   306.04028192
 H     11   6   1     2.055921843999   140.43608866   339.74508347
 N     12  11   6     2.537489108027   117.76219531   173.04036149
 H     14  13   6     2.036066618746   119.07672367     7.35218731
 Cl    15  14  13     3.304489693824   120.64555709   176.36844741
 H     16  11   6     2.054006136069   120.27989285   186.89261571
 H     34  12  11     1.903046092275   122.17258068   173.94584523
 H     34  12  11     1.910713508095   120.25613067   357.83754133

---------------------
BASIS SET INFORMATION
---------------------
There are 4 groups of distinct atoms

 Group   1 Type C   : 8s4p1d contracted to 4s2p1d pattern {5111/31/1}
 Group   2 Type H   : 4s contracted to 2s pattern {31}
 Group   3 Type N   : 8s4p1d contracted to 4s2p1d pattern {5111/31/1}
 Group   4 Type Cl  : 10s7p1d contracted to 4s3p1d pattern {5311/511/1}

Atom   0C    basis set group =>   1
Atom   1C    basis set group =>   1
Atom   2C    basis set group =>   1
Atom   3C    basis set group =>   1
Atom   4C    basis set group =>   1
Atom   5C    basis set group =>   1
Atom   6C    basis set group =>   1
Atom   7C    basis set group =>   1
Atom   8C    basis set group =>   1
Atom   9C    basis set group =>   1
Atom  10C    basis set group =>   1
Atom  11C    basis set group =>   1
Atom  12C    basis set group =>   1
Atom  13C    basis set group =>   1
Atom  14C    basis set group =>   1
Atom  15C    basis set group =>   1
Atom  16H    basis set group =>   2
Atom  17H    basis set group =>   2
Atom  18H    basis set group =>   2
Atom  19H    basis set group =>   2
Atom  20H    basis set group =>   2
Atom  21H    basis set group =>   2
Atom  22H    basis set group =>   2
Atom  23H    basis set group =>   2
Atom  24H    basis set group =>   2
Atom  25H    basis set group =>   2
Atom  26H    basis set group =>   2
Atom  27H    basis set group =>   2
Atom  28H    basis set group =>   2
Atom  29H    basis set group =>   2
Atom  30H    basis set group =>   2
Atom  31H    basis set group =>   2
Atom  32H    basis set group =>   2
Atom  33N    basis set group =>   3
Atom  34H    basis set group =>   2
Atom  35Cl   basis set group =>   4
Atom  36H    basis set group =>   2
Atom  37H    basis set group =>   2
Atom  38H    basis set group =>   2
---------------------------------
AUXILIARY/J BASIS SET INFORMATION
---------------------------------
There are 4 groups of distinct atoms

 Group   1 Type C   : 12s5p4d2f1g contracted to 6s4p3d1f1g pattern {711111/2111/211/2/1}
 Group   2 Type H   : 5s2p1d contracted to 3s1p1d pattern {311/2/1}
 Group   3 Type N   : 12s5p4d2f1g contracted to 6s4p3d1f1g pattern {711111/2111/211/2/1}
 Group   4 Type Cl  : 14s5p5d2f1g contracted to 8s4p3d1f1g pattern {71111111/2111/311/2/1}

Atom   0C    basis set group =>   1
Atom   1C    basis set group =>   1
Atom   2C    basis set group =>   1
Atom   3C    basis set group =>   1
Atom   4C    basis set group =>   1
Atom   5C    basis set group =>   1
Atom   6C    basis set group =>   1
Atom   7C    basis set group =>   1
Atom   8C    basis set group =>   1
Atom   9C    basis set group =>   1
Atom  10C    basis set group =>   1
Atom  11C    basis set group =>   1
Atom  12C    basis set group =>   1
Atom  13C    basis set group =>   1
Atom  14C    basis set group =>   1
Atom  15C    basis set group =>   1
Atom  16H    basis set group =>   2
Atom  17H    basis set group =>   2
Atom  18H    basis set group =>   2
Atom  19H    basis set group =>   2
Atom  20H    basis set group =>   2
Atom  21H    basis set group =>   2
Atom  22H    basis set group =>   2
Atom  23H    basis set group =>   2
Atom  24H    basis set group =>   2
Atom  25H    basis set group =>   2
Atom  26H    basis set group =>   2
Atom  27H    basis set group =>   2
Atom  28H    basis set group =>   2
Atom  29H    basis set group =>   2
Atom  30H    basis set group =>   2
Atom  31H    basis set group =>   2
Atom  32H    basis set group =>   2
Atom  33N    basis set group =>   3
Atom  34H    basis set group =>   2
Atom  35Cl   basis set group =>   4
Atom  36H    basis set group =>   2
Atom  37H    basis set group =>   2
Atom  38H    basis set group =>   2


           ************************************************************
           *        Program running with 4 parallel MPI-processes     *
           *              working on a common directory               *
           ************************************************************
------------------------------------------------------------------------------
                           ORCA GTO INTEGRAL CALCULATION
                           -- RI-GTO INTEGRALS CHOSEN --
------------------------------------------------------------------------------
------------------------------------------------------------------------------
                   ___                                                        
                  /   \      - P O W E R E D   B Y -                         
                 /     \                                                     
                 |  |  |   _    _      __       _____    __    __             
                 |  |  |  | |  | |    /  \     |  _  \  |  |  /  |          
                  \  \/   | |  | |   /    \    | | | |  |  | /  /          
                 / \  \   | |__| |  /  /\  \   | |_| |  |  |/  /          
                |  |  |   |  __  | /  /__\  \  |    /   |      \           
                |  |  |   | |  | | |   __   |  |    \   |  |\   \          
                \     /   | |  | | |  |  |  |  | |\  \  |  | \   \       
                 \___/    |_|  |_| |__|  |__|  |_| \__\ |__|  \__/        
                                                                              
                      - O R C A' S   B I G   F R I E N D -                    
                                      &                                       
                       - I N T E G R A L  F E E D E R -                       
                                                                              
 v1 FN, 2020, v2 2021                                                         
------------------------------------------------------------------------------


Reading SHARK input file pbeh-3c.SHARKINP.tmp ... ok
----------------------
SHARK INTEGRAL PACKAGE
----------------------

Number of atoms                             ...     39
Number of basis functions                   ...    315
Number of shells                            ...    169
Maximum angular momentum                    ...      2
Integral batch strategy                     ... SHARK/LIBINT Hybrid
RI-J (if used) integral strategy            ... SPLIT-RIJ (Revised 2003 algorithm where possible)
Printlevel                                  ...      1
Contraction scheme used                     ... SEGMENTED contraction
Coulomb Range Separation                    ... NOT USED
Exchange Range Separation                   ... NOT USED
Finite Nucleus Model                        ... NOT USED
Auxiliary Coulomb fitting basis             ... AVAILABLE
   # of basis functions in Aux-J            ...   1115
   # of shells in Aux-J                     ...    377
   Maximum angular momentum in Aux-J        ...      4
Auxiliary J/K fitting basis                 ... NOT available
Auxiliary Correlation fitting basis         ... NOT available
Auxiliary 'external' fitting basis          ... NOT available
Integral threshold                          ...     2.500000e-11
Primitive cut-off                           ...     2.500000e-12
Primitive pair pre-selection threshold      ...     2.500000e-12

Calculating pre-screening integrals         ... done (  0.1 sec) Dimension = 169
Organizing shell pair data                  ... done (  0.3 sec)
Shell pair information
Total number of shell pairs                 ...     14365
Shell pairs after pre-screening             ...     11386
Total number of primitive shell pairs       ...     52633
Primitive shell pairs kept                  ...     26647
          la=0 lb=0:   4830 shell pairs
          la=1 lb=0:   3659 shell pairs
          la=1 lb=1:    664 shell pairs
          la=2 lb=0:   1516 shell pairs
          la=2 lb=1:    586 shell pairs
          la=2 lb=2:    131 shell pairs

Calculating one electron integrals          ... done (  0.1 sec)
Calculating RI/J V-Matrix + Cholesky decomp.... done (  0.9 sec)
Calculating Nuclear repulsion               ... done (  0.0 sec) ENN=   1503.992164863834 Eh

SHARK setup successfully completed in   2.4 seconds

Maximum memory used throughout the entire GTOINT-calculation: 22.5 MB


           ************************************************************
           *        Program running with 4 parallel MPI-processes     *
           *              working on a common directory               *
           ************************************************************
-------------------------------------------------------------------------------
                                 ORCA SCF
-------------------------------------------------------------------------------

------------
SCF SETTINGS
------------
Hamiltonian:
 Density Functional     Method          .... DFT(GTOs)
 Exchange Functional    Exchange        .... PBE
   PBE kappa parameter   XKappa         ....  1.024500
   PBE mue parameter    XMuePBE         ....  0.123457
 Correlation Functional Correlation     .... PBE
   PBE beta parameter  CBetaPBE         ....  0.030000
 LDA part of GGA corr.  LDAOpt          .... PW91-LDA
 Gradients option       PostSCFGGA      .... off
 Hybrid DFT is turned on
   Fraction HF Exchange ScalHFX         ....  0.420000
   Scaling of DF-GGA-X  ScalDFX         ....  0.580000
   Scaling of DF-GGA-C  ScalDFC         ....  1.000000
   Scaling of DF-LDA-C  ScalLDAC        ....  1.000000
   Perturbative correction              ....  0.000000
   Density functional embedding theory  .... OFF
 RI-approximation to the Coulomb term is turned on
   Number of AuxJ basis functions       .... 1115
   RIJ-ON(X) (HFX calculated with O(N)) .... on
   Number of AuxJ basis functions       .... 1115
   RIJ-COSX (HFX calculated with COS-X)).... on


General Settings:
 Integral files         IntName         .... pbeh-3c
 Hartree-Fock type      HFTyp           .... RHF
 Total Charge           Charge          ....    1
 Multiplicity           Mult            ....    1
 Number of Electrons    NEL             ....  140
 Basis Dimension        Dim             ....  315
 Nuclear Repulsion      ENuc            ....   1503.9921648638 Eh

Convergence Acceleration:
 DIIS                   CNVDIIS         .... on
   Start iteration      DIISMaxIt       ....    12
   Startup error        DIISStart       ....  0.200000
   # of expansion vecs  DIISMaxEq       ....     5
   Bias factor          DIISBfac        ....   1.050
   Max. coefficient     DIISMaxC        ....  10.000
 Trust-Rad. Augm. Hess. CNVTRAH         .... auto
   Auto Start mean grad. ratio tolernc. ....  1.125000
   Auto Start start iteration           ....    20
   Auto Start num. interpolation iter.  ....    10
   Max. Number of Micro iterations      ....    16
   Max. Number of Macro iterations      .... Maxiter - #DIIS iter
   Number of Davidson start vectors     ....     2
   Converg. threshold I  (grad. norm)   ....   1.000e-05
   Converg. threshold II (energy diff.) ....   1.000e-08
   Grad. Scal. Fac. for Micro threshold ....   0.100
   Minimum threshold for Micro iter.    ....   0.010
   NR start threshold (gradient norm)   ....   0.001
   Initial trust radius                 ....   0.400
   Minimum AH scaling param. (alpha)    ....   1.000
   Maximum AH scaling param. (alpha)    .... 1000.000
   Orbital update algorithm             .... Taylor
   White noise on init. David. guess    .... on
   Maximum white noise                  ....   0.010
   Quad. conv. algorithm                .... NR
   COSX micro iterations for RIJONX calc.... off
 SOSCF                  CNVSOSCF        .... on
   Start iteration      SOSCFMaxIt      ....   150
   Startup grad/error   SOSCFStart      ....  0.003300
 Level Shifting         CNVShift        .... on
   Level shift para.    LevelShift      ....    0.2500
   Turn off err/grad.   ShiftErr        ....    0.0010
 Zerner damping         CNVZerner       .... off
 Static damping         CNVDamp         .... on
   Fraction old density DampFac         ....    0.7000
   Max. Damping (<1)    DampMax         ....    0.9800
   Min. Damping (>=0)   DampMin         ....    0.0000
   Turn off err/grad.   DampErr         ....    0.1000
 Fernandez-Rico         CNVRico         .... off

SCF Procedure:
 Maximum # iterations   MaxIter         ....   125
 SCF integral mode      SCFMode         .... Direct
   Integral package                     .... SHARK and LIBINT hybrid scheme
 Reset frequency        DirectResetFreq ....    20
 Integral Threshold     Thresh          ....  2.500e-11 Eh
 Primitive CutOff       TCut            ....  2.500e-12 Eh

Convergence Tolerance:
 Convergence Check Mode ConvCheckMode   .... Total+1el-Energy
 Convergence forced     ConvForced      .... 0
 Energy Change          TolE            ....  1.000e-08 Eh
 1-El. energy change                    ....  1.000e-05 Eh
 Orbital Gradient       TolG            ....  1.000e-05
 Orbital Rotation angle TolX            ....  1.000e-05
 DIIS Error             TolErr          ....  5.000e-07


Diagonalization of the overlap matrix:
Smallest eigenvalue                        ... 4.641e-04
Time for diagonalization                   ...    0.049 sec
Threshold for overlap eigenvalues          ... 1.000e-08
Number of eigenvalues below threshold      ... 0
Time for construction of square roots      ...    0.217 sec
Total time needed                          ...    0.267 sec

--------------------------------
INITIAL GUESS: MINIMAL BASIS EHT
--------------------------------
The minimal basis has 115 functions
EHT matrix was diagonalized
Basis set overlap was calculated now projecting the orbitals
Using GuessMode=FMatrix for the initial guess
C*T matrix was formed
Effective Fockian was calculated
Effective Fockian was diagonalized
Initial density was built
                      ------------------
                      INITIAL GUESS DONE
                      ------------------
-------------------
DFT GRID GENERATION
-------------------

General Integration Accuracy     IntAcc      ... 4.959
Radial Grid Type                 RadialGrid  ... OptM3 with GC (2021)
Angular Grid (max. ang.)         AngularGrid ... 6 (Lebedev-590)
Angular grid pruning method      GridPruning ... 4 (adaptive)
Weight generation scheme         WeightScheme... Becke
Basis function cutoff            BFCut       ... 1.0000e-11
Integration weight cutoff        WCut        ... 1.0000e-14
Angular grids for H and He will be reduced by one unit
Partially contracted basis set               ... off
Rotationally invariant grid construction     ... off

Total number of grid points                  ...   431121
Total number of batches                      ...     6756
Average number of points per batch           ...       63
Average number of grid points per atom       ...    11054
Time for grid setup =    9.909 sec

--------------------
COSX GRID GENERATION
--------------------

GRIDX 1
-------
General Integration Accuracy     IntAcc      ... 4.020
Radial Grid Type                 RadialGrid  ... OptM3 with GC (2021)
Angular Grid (max. ang.)         AngularGrid ... 2 (Lebedev-110)
Angular grid pruning method      GridPruning ... 4 (adaptive)
Weight generation scheme         WeightScheme... Becke
Basis function cutoff            BFCut       ... 1.0000e-11
Integration weight cutoff        WCut        ... 1.0000e-14
Angular grids for H and He will be reduced by one unit
Partially contracted basis set               ... on
Rotationally invariant grid construction     ... off

Total number of grid points                  ...    46456
Total number of batches                      ...      743
Average number of points per batch           ...       62
Average number of grid points per atom       ...     1191
UseSFitting                                  ... on

GRIDX 2
-------
General Integration Accuracy     IntAcc      ... 4.338
Radial Grid Type                 RadialGrid  ... OptM3 with GC (2021)
Angular Grid (max. ang.)         AngularGrid ... 3 (Lebedev-194)
Angular grid pruning method      GridPruning ... 4 (adaptive)
Weight generation scheme         WeightScheme... Becke
Basis function cutoff            BFCut       ... 1.0000e-11
Integration weight cutoff        WCut        ... 1.0000e-14
Angular grids for H and He will be reduced by one unit
Partially contracted basis set               ... on
Rotationally invariant grid construction     ... off

Total number of grid points                  ...   101624
Total number of batches                      ...     1608
Average number of points per batch           ...       63
Average number of grid points per atom       ...     2606
UseSFitting                                  ... on

GRIDX 3
-------
General Integration Accuracy     IntAcc      ... 4.871
Radial Grid Type                 RadialGrid  ... OptM3 with GC (2021)
Angular Grid (max. ang.)         AngularGrid ... 4 (Lebedev-302)
Angular grid pruning method      GridPruning ... 4 (adaptive)
Weight generation scheme         WeightScheme... Becke
Basis function cutoff            BFCut       ... 1.0000e-11
Integration weight cutoff        WCut        ... 1.0000e-14
Angular grids for H and He will be reduced by one unit
Partially contracted basis set               ... on
Rotationally invariant grid construction     ... off

Total number of grid points                  ...   193576
Total number of batches                      ...     3043
Average number of points per batch           ...       63
Average number of grid points per atom       ...     4963
UseSFitting                                  ... on

Time for X-Grid setup             =    7.776 sec

--------------
SCF ITERATIONS
--------------
ITER       Energy         Delta-E        Max-DP      RMS-DP      [F,P]     Damp
               ***  Starting incremental Fock matrix formation  ***
  0  -1133.5229132624   0.000000000000 0.12022429  0.00286166  0.4081905 0.7000
  1  -1133.9978238672  -0.474910604759 0.10759858  0.00210289  0.2870419 0.7000
  2  -1134.3221461619  -0.324322294687 0.09279905  0.00155603  0.2008027 0.7000
                               ***Turning on DIIS***
  3  -1134.5501920120  -0.228045850109 0.07539581  0.00116872  0.1407420 0.7000
  4  -1134.7123326350  -0.162140623035 0.21739573  0.00310020  0.0988026 0.0000
  5  -1135.1005951497  -0.388262514735 0.01227617  0.00020648  0.0092612 0.0000
  6  -1135.1012622965  -0.000667146764 0.00440949  0.00008343  0.0041835 0.0000
                      *** Initiating the SOSCF procedure ***
                           *** Shutting down DIIS ***
                      *** Re-Reading the Fockian *** 
                      *** Removing any level shift *** 
ITER      Energy       Delta-E        Grad      Rot      Max-DP    RMS-DP
  7  -1135.10144000  -0.0001777071  0.001022  0.001022  0.001965  0.000041
               *** Restarting incremental Fock matrix formation ***
  8  -1135.10146731  -0.0000273103  0.000641  0.002872  0.001407  0.000031
  9  -1135.10148396  -0.0000166499  0.000147  0.001483  0.000667  0.000022
 10  -1135.10148560  -0.0000016365  0.000123  0.000459  0.000352  0.000007
 11  -1135.10148666  -0.0000010593  0.000068  0.000256  0.000164  0.000004
 12  -1135.10148668  -0.0000000155  0.000046  0.000089  0.000079  0.000002
 13  -1135.10148675  -0.0000000755  0.000008  0.000040  0.000024  0.000001
 14  -1135.10148675   0.0000000043  0.000007  0.000015  0.000011  0.000000
                  ***Gradient check signals convergence***
              ***Rediagonalizing the Fockian in SOSCF/NRSCF***

               *****************************************************
               *                     SUCCESS                       *
               *           SCF CONVERGED AFTER  15 CYCLES          *
               *****************************************************

Old exchange energy                            =    -52.181066969 Eh
New exchange energy                            =    -52.181070005 Eh
Exchange energy change after final integration =     -0.000003036 Eh
Total energy after final integration           =  -1135.101489778 Eh
Final COS-X integration done in                =    40.077 sec

----------------
TOTAL SCF ENERGY
----------------

Total Energy       :        -1135.10148978 Eh          -30887.68184 eV

Components:
Nuclear Repulsion  :         1503.99216486 Eh           40925.70743 eV
Electronic Energy  :        -2639.09365464 Eh          -71813.38926 eV
One Electron Energy:        -4517.45599782 Eh         -122926.22715 eV
Two Electron Energy:         1878.36234318 Eh           51112.83788 eV
Max COSX asymmetry :            0.00000161 Eh               0.00004 eV

Virial components:
Potential Energy   :        -2263.55314617 Eh          -61594.41251 eV
Kinetic Energy     :         1128.45165640 Eh           30706.73067 eV
Virial Ratio       :            2.00589288


DFT components:
N(Alpha)           :       69.999997171079 electrons
N(Beta)            :       69.999997171079 electrons
N(Total)           :      139.999994342158 electrons
E(X)               :      -69.344535538530 Eh       
E(C)               :       -6.229225032157 Eh       
E(XC)              :      -75.573760570687 Eh       
DFET-embed. en.    :        0.000000000000 Eh       

---------------
SCF CONVERGENCE
---------------

  Last Energy change         ...    4.5766e-09  Tolerance :   1.0000e-08
  Last MAX-Density change    ...    2.6645e-15  Tolerance :   1.0000e-07
  Last RMS-Density change    ...    3.3952e-17  Tolerance :   5.0000e-09
  Last Orbital Gradient      ...    1.1290e-06  Tolerance :   1.0000e-05
  Last Orbital Rotation      ...    3.3988e-06  Tolerance :   1.0000e-05

             **** THE GBW FILE WAS UPDATED (pbeh-3c.gbw) ****
             **** DENSITY pbeh-3c.scfp WAS UPDATED ****
             **** ENERGY FILE WAS UPDATED (pbeh-3c.en.tmp) ****
             **** THE GBW FILE WAS UPDATED (pbeh-3c.gbw) ****
             **** DENSITY pbeh-3c.scfp WAS UPDATED ****
----------------
ORBITAL ENERGIES
----------------

  NO   OCC          E(Eh)            E(eV) 
   0   2.0000    -102.422508     -2787.0581 
   1   2.0000     -14.835442      -403.6929 
   2   2.0000     -10.692801      -290.9659 
   3   2.0000     -10.669657      -290.3361 
   4   2.0000     -10.648565      -289.7622 
   5   2.0000     -10.633501      -289.3523 
   6   2.0000     -10.625875      -289.1448 
   7   2.0000     -10.619130      -288.9612 
   8   2.0000     -10.616292      -288.8840 
   9   2.0000     -10.613848      -288.8175 
  10   2.0000     -10.608017      -288.6588 
  11   2.0000     -10.593476      -288.2631 
  12   2.0000     -10.580126      -287.8999 
  13   2.0000     -10.574167      -287.7377 
  14   2.0000     -10.567476      -287.5556 
  15   2.0000     -10.566672      -287.5338 
  16   2.0000     -10.564922      -287.4861 
  17   2.0000     -10.560491      -287.3656 
  18   2.0000      -9.889378      -269.1036 
  19   2.0000      -7.577379      -206.1910 
  20   2.0000      -7.568498      -205.9493 
  21   2.0000      -7.568392      -205.9464 
  22   2.0000      -1.215643       -33.0793 
  23   2.0000      -1.139490       -31.0071 
  24   2.0000      -1.121305       -30.5123 
  25   2.0000      -1.061025       -28.8720 
  26   2.0000      -1.032911       -28.1069 
  27   2.0000      -1.017491       -27.6873 
  28   2.0000      -0.973739       -26.4968 
  29   2.0000      -0.957031       -26.0421 
  30   2.0000      -0.935722       -25.4623 
  31   2.0000      -0.918192       -24.9853 
  32   2.0000      -0.897668       -24.4268 
  33   2.0000      -0.871608       -23.7177 
  34   2.0000      -0.851718       -23.1764 
  35   2.0000      -0.838191       -22.8083 
  36   2.0000      -0.798071       -21.7166 
  37   2.0000      -0.774050       -21.0630 
  38   2.0000      -0.765760       -20.8374 
  39   2.0000      -0.747959       -20.3530 
  40   2.0000      -0.729830       -19.8597 
  41   2.0000      -0.690117       -18.7790 
  42   2.0000      -0.679943       -18.5022 
  43   2.0000      -0.671202       -18.2643 
  44   2.0000      -0.667904       -18.1746 
  45   2.0000      -0.658436       -17.9170 
  46   2.0000      -0.645459       -17.5638 
  47   2.0000      -0.630503       -17.1569 
  48   2.0000      -0.621315       -16.9068 
  49   2.0000      -0.619709       -16.8631 
  50   2.0000      -0.600793       -16.3484 
  51   2.0000      -0.596494       -16.2314 
  52   2.0000      -0.585995       -15.9457 
  53   2.0000      -0.577573       -15.7166 
  54   2.0000      -0.576837       -15.6965 
  55   2.0000      -0.573776       -15.6132 
  56   2.0000      -0.562872       -15.3165 
  57   2.0000      -0.557086       -15.1591 
  58   2.0000      -0.549780       -14.9603 
  59   2.0000      -0.537204       -14.6181 
  60   2.0000      -0.532965       -14.5027 
  61   2.0000      -0.520234       -14.1563 
  62   2.0000      -0.512679       -13.9507 
  63   2.0000      -0.504947       -13.7403 
  64   2.0000      -0.500804       -13.6276 
  65   2.0000      -0.486472       -13.2376 
  66   2.0000      -0.482999       -13.1431 
  67   2.0000      -0.479753       -13.0547 
  68   2.0000      -0.462913       -12.5965 
  69   2.0000      -0.398637       -10.8475 
  70   0.0000      -0.239489        -6.5168 
  71   0.0000      -0.128651        -3.5008 
  72   0.0000      -0.112816        -3.0699 
  73   0.0000      -0.050840        -1.3834 
  74   0.0000      -0.035375        -0.9626 
  75   0.0000      -0.016237        -0.4418 
  76   0.0000       0.006314         0.1718 
  77   0.0000       0.014666         0.3991 
  78   0.0000       0.020165         0.5487 
  79   0.0000       0.023477         0.6388 
  80   0.0000       0.030499         0.8299 
  81   0.0000       0.039273         1.0687 
  82   0.0000       0.041186         1.1207 
  83   0.0000       0.045986         1.2513 
  84   0.0000       0.058004         1.5784 
  85   0.0000       0.069758         1.8982 
  86   0.0000       0.075099         2.0436 
  87   0.0000       0.079937         2.1752 
  88   0.0000       0.082131         2.2349 
  89   0.0000       0.087245         2.3740 
  90   0.0000       0.096992         2.6393 
  91   0.0000       0.103288         2.8106 
  92   0.0000       0.105763         2.8780 
  93   0.0000       0.109656         2.9839 
  94   0.0000       0.111628         3.0375 
  95   0.0000       0.118789         3.2324 
  96   0.0000       0.124324         3.3830 
  97   0.0000       0.125345         3.4108 
  98   0.0000       0.132307         3.6003 
  99   0.0000       0.143598         3.9075 
 100   0.0000       0.153663         4.1814 
 101   0.0000       0.163907         4.4601 
 102   0.0000       0.170233         4.6323 
 103   0.0000       0.181652         4.9430 
 104   0.0000       0.185007         5.0343 
 105   0.0000       0.191920         5.2224 
 106   0.0000       0.196562         5.3487 
 107   0.0000       0.202154         5.5009 
 108   0.0000       0.215895         5.8748 
 109   0.0000       0.231168         6.2904 
 110   0.0000       0.241725         6.5777 
 111   0.0000       0.264753         7.2043 
 112   0.0000       0.275475         7.4961 
 113   0.0000       0.328371         8.9354 
 114   0.0000       0.347027         9.4431 
 115   0.0000       0.352154         9.5826 
 116   0.0000       0.354160         9.6372 
 117   0.0000       0.369555        10.0561 
 118   0.0000       0.383009        10.4222 
 119   0.0000       0.389039        10.5863 
 120   0.0000       0.394488        10.7346 
 121   0.0000       0.401569        10.9272 
 122   0.0000       0.407404        11.0860 
 123   0.0000       0.420825        11.4512 
 124   0.0000       0.430438        11.7128 
 125   0.0000       0.433898        11.8070 
 126   0.0000       0.441311        12.0087 
 127   0.0000       0.448693        12.2096 
 128   0.0000       0.452903        12.3241 
 129   0.0000       0.465422        12.6648 
 130   0.0000       0.481111        13.0917 
 131   0.0000       0.485502        13.2112 
 132   0.0000       0.494047        13.4437 
 133   0.0000       0.496875        13.5206 
 134   0.0000       0.505066        13.7435 
 135   0.0000       0.510028        13.8786 
 136   0.0000       0.513642        13.9769 
 137   0.0000       0.526448        14.3254 
 138   0.0000       0.537840        14.6354 
 139   0.0000       0.551654        15.0113 
 140   0.0000       0.560510        15.2522 
 141   0.0000       0.573093        15.5947 
 142   0.0000       0.575618        15.6634 
 143   0.0000       0.592075        16.1112 
 144   0.0000       0.601278        16.3616 
 145   0.0000       0.620978        16.8977 
 146   0.0000       0.626141        17.0382 
 147   0.0000       0.637995        17.3607 
 148   0.0000       0.656839        17.8735 
 149   0.0000       0.659712        17.9517 
 150   0.0000       0.661775        18.0078 
 151   0.0000       0.675885        18.3918 
 152   0.0000       0.686610        18.6836 
 153   0.0000       0.699836        19.0435 
 154   0.0000       0.704939        19.1824 
 155   0.0000       0.722163        19.6511 
 156   0.0000       0.730349        19.8738 
 157   0.0000       0.735485        20.0136 
 158   0.0000       0.744072        20.2472 
 159   0.0000       0.762136        20.7388 
 160   0.0000       0.765352        20.8263 
 161   0.0000       0.777415        21.1545 
 162   0.0000       0.791205        21.5298 
 163   0.0000       0.806615        21.9491 
 164   0.0000       0.814008        22.1503 
 165   0.0000       0.825827        22.4719 
 166   0.0000       0.835308        22.7299 
 167   0.0000       0.850894        23.1540 
 168   0.0000       0.856517        23.3070 
 169   0.0000       0.867676        23.6107 
 170   0.0000       0.871126        23.7045 
 171   0.0000       0.878876        23.9154 
 172   0.0000       0.881475        23.9861 
 173   0.0000       0.886146        24.1133 
 174   0.0000       0.898532        24.4503 
 175   0.0000       0.906030        24.6543 
 176   0.0000       0.909073        24.7371 
 177   0.0000       0.915921        24.9235 
 178   0.0000       0.918979        25.0067 
 179   0.0000       0.923020        25.1166 
 180   0.0000       0.935185        25.4477 
 181   0.0000       0.946425        25.7535 
 182   0.0000       0.953278        25.9400 
 183   0.0000       0.962634        26.1946 
 184   0.0000       0.973209        26.4824 
 185   0.0000       0.984869        26.7997 
 186   0.0000       0.987211        26.8634 
 187   0.0000       0.998838        27.1798 
 188   0.0000       1.004436        27.3321 
 189   0.0000       1.021162        27.7872 
 190   0.0000       1.026485        27.9321 
 191   0.0000       1.033065        28.1111 
 192   0.0000       1.045342        28.4452 
 193   0.0000       1.051518        28.6133 
 194   0.0000       1.083821        29.4923 
 195   0.0000       1.116468        30.3806 
 196   0.0000       1.140479        31.0340 
 197   0.0000       1.145551        31.1720 
 198   0.0000       1.164925        31.6992 
 199   0.0000       1.198351        32.6088 
 200   0.0000       1.200035        32.6546 
 201   0.0000       1.224780        33.3280 
 202   0.0000       1.237011        33.6608 
 203   0.0000       1.261291        34.3215 
 204   0.0000       1.267337        34.4860 
 205   0.0000       1.290483        35.1158 
 206   0.0000       1.298274        35.3278 
 207   0.0000       1.331613        36.2350 
 208   0.0000       1.356914        36.9235 
 209   0.0000       1.372396        37.3448 
 210   0.0000       1.376439        37.4548 
 211   0.0000       1.387635        37.7595 
 212   0.0000       1.410547        38.3829 
 213   0.0000       1.416672        38.5496 
 214   0.0000       1.435715        39.0678 
 215   0.0000       1.460537        39.7432 
 216   0.0000       1.477474        40.2041 
 217   0.0000       1.484509        40.3956 
 218   0.0000       1.520190        41.3665 
 219   0.0000       1.529599        41.6225 
 220   0.0000       1.538014        41.8515 
 221   0.0000       1.562081        42.5064 
 222   0.0000       1.597836        43.4793 
 223   0.0000       1.618649        44.0457 
 224   0.0000       1.624570        44.2068 
 225   0.0000       1.656600        45.0784 
 226   0.0000       1.679993        45.7149 
 227   0.0000       1.683812        45.8189 
 228   0.0000       1.727311        47.0025 
 229   0.0000       1.730708        47.0950 
 230   0.0000       1.740660        47.3658 
 231   0.0000       1.768155        48.1140 
 232   0.0000       1.776942        48.3531 
 233   0.0000       1.781118        48.4667 
 234   0.0000       1.790141        48.7122 
 235   0.0000       1.800680        48.9990 
 236   0.0000       1.827710        49.7345 
 237   0.0000       1.837725        50.0070 
 238   0.0000       1.856411        50.5155 
 239   0.0000       1.876875        51.0724 
 240   0.0000       1.893208        51.5168 
 241   0.0000       1.916528        52.1514 
 242   0.0000       1.925363        52.3918 
 243   0.0000       1.928001        52.4636 
 244   0.0000       1.936845        52.7042 
 245   0.0000       1.948082        53.0100 
 246   0.0000       1.952584        53.1325 
 247   0.0000       1.978850        53.8472 
 248   0.0000       1.983366        53.9701 
 249   0.0000       1.987309        54.0774 
 250   0.0000       2.017915        54.9103 
 251   0.0000       2.021689        55.0129 
 252   0.0000       2.041742        55.5586 
 253   0.0000       2.050922        55.8084 
 254   0.0000       2.065191        56.1967 
 255   0.0000       2.111408        57.4543 
 256   0.0000       2.116268        57.5866 
 257   0.0000       2.119397        57.6717 
 258   0.0000       2.145061        58.3701 
 259   0.0000       2.149299        58.4854 
 260   0.0000       2.163538        58.8729 
 261   0.0000       2.172480        59.1162 
 262   0.0000       2.202689        59.9382 
 263   0.0000       2.208611        60.0994 
 264   0.0000       2.212175        60.1964 
 265   0.0000       2.214817        60.2682 
 266   0.0000       2.239481        60.9394 
 267   0.0000       2.244717        61.0819 
 268   0.0000       2.260596        61.5139 
 269   0.0000       2.273510        61.8654 
 270   0.0000       2.306393        62.7601 
 271   0.0000       2.344689        63.8022 
 272   0.0000       2.368893        64.4609 
 273   0.0000       2.387612        64.9702 
 274   0.0000       2.395750        65.1917 
 275   0.0000       2.438110        66.3443 
 276   0.0000       2.453546        66.7644 
 277   0.0000       2.483302        67.5741 
 278   0.0000       2.504949        68.1631 
 279   0.0000       2.507924        68.2441 
 280   0.0000       2.528982        68.8171 
 281   0.0000       2.537371        69.0454 
 282   0.0000       2.550787        69.4105 
 283   0.0000       2.561545        69.7032 
 284   0.0000       2.574001        70.0421 
 285   0.0000       2.596818        70.6630 
 286   0.0000       2.604414        70.8697 
 287   0.0000       2.645829        71.9967 
 288   0.0000       2.653947        72.2176 
 289   0.0000       2.674414        72.7745 
 290   0.0000       2.702492        73.5386 
 291   0.0000       2.739856        74.5553 
 292   0.0000       2.754449        74.9524 
 293   0.0000       2.775602        75.5280 
 294   0.0000       2.859475        77.8103 
 295   0.0000       2.898460        78.8711 
 296   0.0000       3.144384        85.5630 
 297   0.0000       3.259184        88.6869 
 298   0.0000      13.104482       356.5911 
 299   0.0000      13.391604       364.4041 
 300   0.0000      13.522053       367.9538 
 301   0.0000      13.590260       369.8098 
 302   0.0000      13.614627       370.4728 
 303   0.0000      13.694564       372.6480 
 304   0.0000      13.736206       373.7812 
 305   0.0000      13.804115       375.6291 
 306   0.0000      13.828953       376.3050 
 307   0.0000      13.903239       378.3264 
 308   0.0000      13.980041       380.4162 
 309   0.0000      14.004284       381.0759 
 310   0.0000      14.054629       382.4459 
 311   0.0000      14.075549       383.0152 
 312   0.0000      14.154320       385.1586 
 313   0.0000      14.313406       389.4876 
 314   0.0000      19.166429       521.5450 

                    ********************************
                    * MULLIKEN POPULATION ANALYSIS *
                    ********************************

-----------------------
MULLIKEN ATOMIC CHARGES
-----------------------
   0 C :   -0.217994
   1 C :   -0.459196
   2 C :   -0.425676
   3 C :   -0.247511
   4 C :   -0.166384
   5 C :    0.311230
   6 C :   -0.404689
   7 C :   -0.659418
   8 C :   -0.636281
   9 C :   -0.624120
  10 C :   -0.301878
  11 C :    0.361674
  12 C :    0.021554
  13 C :   -0.204738
  14 C :   -0.032278
  15 C :   -0.158003
  16 H :    0.282799
  17 H :    0.229106
  18 H :    0.255107
  19 H :    0.272240
  20 H :    0.257734
  21 H :    0.265949
  22 H :    0.266291
  23 H :    0.222045
  24 H :    0.261418
  25 H :    0.248310
  26 H :    0.245792
  27 H :    0.266106
  28 H :    0.251291
  29 H :    0.231729
  30 H :    0.241503
  31 H :    0.260914
  32 H :    0.271924
  33 N :   -0.821985
  34 H :    0.258461
  35 Cl:   -0.045281
  36 H :    0.302255
  37 H :    0.414400
  38 H :    0.405599
Sum of atomic charges:    1.0000000

--------------------------------
MULLIKEN REDUCED ORBITAL CHARGES
--------------------------------
  0 C s       :     3.318682  s :     3.318682
      pz      :     0.985352  p :     2.846794
      px      :     0.898908
      py      :     0.962534
      dz2     :     0.009992  d :     0.052519
      dxz     :     0.012248
      dyz     :     0.011573
      dx2y2   :     0.008636
      dxy     :     0.010070
  1 C s       :     3.351303  s :     3.351303
      pz      :     1.047039  p :     3.067152
      px      :     1.055999
      py      :     0.964114
      dz2     :     0.007707  d :     0.040741
      dxz     :     0.010797
      dyz     :     0.007348
      dx2y2   :     0.005027
      dxy     :     0.009863
  2 C s       :     3.333027  s :     3.333027
      pz      :     0.882458  p :     3.051847
      px      :     1.110871
      py      :     1.058518
      dz2     :     0.010017  d :     0.040803
      dxz     :     0.005515
      dyz     :     0.008024
      dx2y2   :     0.013276
      dxy     :     0.003970
  3 C s       :     3.314494  s :     3.314494
      pz      :     1.103103  p :     2.884878
      px      :     0.883417
      py      :     0.898358
      dz2     :     0.010372  d :     0.048138
      dxz     :     0.009115
      dyz     :     0.010977
      dx2y2   :     0.011287
      dxy     :     0.006387
  4 C s       :     3.281382  s :     3.281382
      pz      :     0.859921  p :     2.834091
      px      :     0.974315
      py      :     0.999854
      dz2     :     0.012539  d :     0.050911
      dxz     :     0.008233
      dyz     :     0.009584
      dx2y2   :     0.011925
      dxy     :     0.008630
  5 C s       :     3.223780  s :     3.223780
      pz      :     0.946883  p :     2.420480
      px      :     0.796313
      py      :     0.677283
      dz2     :     0.009563  d :     0.044510
      dxz     :     0.013364
      dyz     :     0.005091
      dx2y2   :     0.006677
      dxy     :     0.009814
  6 C s       :     3.347449  s :     3.347449
      pz      :     0.929145  p :     3.014259
      px      :     1.103180
      py      :     0.981933
      dz2     :     0.005708  d :     0.042981
      dxz     :     0.008407
      dyz     :     0.011018
      dx2y2   :     0.009814
      dxy     :     0.008034
  7 C s       :     3.411572  s :     3.411572
      pz      :     0.993271  p :     3.212177
      px      :     1.168331
      py      :     1.050575
      dz2     :     0.009651  d :     0.035670
      dxz     :     0.002874
      dyz     :     0.009327
      dx2y2   :     0.002948
      dxy     :     0.010869
  8 C s       :     3.405933  s :     3.405933
      pz      :     1.035510  p :     3.194850
      px      :     1.134728
      py      :     1.024613
      dz2     :     0.003805  d :     0.035498
      dxz     :     0.010632
      dyz     :     0.007756
      dx2y2   :     0.010211
      dxy     :     0.003094
  9 C s       :     3.401509  s :     3.401509
      pz      :     1.121940  p :     3.186770
      px      :     1.134423
      py      :     0.930407
      dz2     :     0.006079  d :     0.035841
      dxz     :     0.005992
      dyz     :     0.009130
      dx2y2   :     0.011089
      dxy     :     0.003551
 10 C s       :     3.260579  s :     3.260579
      pz      :     1.061383  p :     3.005117
      px      :     0.876976
      py      :     1.066758
      dz2     :     0.012241  d :     0.036182
      dxz     :     0.009948
      dyz     :     0.003238
      dx2y2   :     0.006399
      dxy     :     0.004356
 11 C s       :     3.175078  s :     3.175078
      pz      :     0.770419  p :     2.395151
      px      :     0.819318
      py      :     0.805415
      dz2     :     0.014335  d :     0.068097
      dxz     :     0.019987
      dyz     :     0.011602
      dx2y2   :     0.010058
      dxy     :     0.012116
 12 C s       :     3.246953  s :     3.246953
      pz      :     0.758501  p :     2.690520
      px      :     0.827330
      py      :     1.104690
      dz2     :     0.011865  d :     0.040973
      dxz     :     0.013485
      dyz     :     0.004862
      dx2y2   :     0.006490
      dxy     :     0.004271
 13 C s       :     3.295679  s :     3.295679
      pz      :     1.069980  p :     2.869324
      px      :     0.864410
      py      :     0.934934
      dz2     :     0.011135  d :     0.039734
      dxz     :     0.011492
      dyz     :     0.002465
      dx2y2   :     0.005997
      dxy     :     0.008645
 14 C s       :     3.259680  s :     3.259680
      pz      :     0.837868  p :     2.718841
      px      :     0.819009
      py      :     1.061965
      dz2     :     0.014050  d :     0.053757
      dxz     :     0.017948
      dyz     :     0.006055
      dx2y2   :     0.007517
      dxy     :     0.008188
 15 C s       :     3.287566  s :     3.287566
      pz      :     0.885129  p :     2.829529
      px      :     1.092311
      py      :     0.852088
      dz2     :     0.011390  d :     0.040908
      dxz     :     0.011481
      dyz     :     0.007543
      dx2y2   :     0.006769
      dxy     :     0.003725
 16 H s       :     0.717201  s :     0.717201
 17 H s       :     0.770894  s :     0.770894
 18 H s       :     0.744893  s :     0.744893
 19 H s       :     0.727760  s :     0.727760
 20 H s       :     0.742266  s :     0.742266
 21 H s       :     0.734051  s :     0.734051
 22 H s       :     0.733709  s :     0.733709
 23 H s       :     0.777955  s :     0.777955
 24 H s       :     0.738582  s :     0.738582
 25 H s       :     0.751690  s :     0.751690
 26 H s       :     0.754208  s :     0.754208
 27 H s       :     0.733894  s :     0.733894
 28 H s       :     0.748709  s :     0.748709
 29 H s       :     0.768271  s :     0.768271
 30 H s       :     0.758497  s :     0.758497
 31 H s       :     0.739086  s :     0.739086
 32 H s       :     0.728076  s :     0.728076
 33 N s       :     3.626396  s :     3.626396
      pz      :     1.266852  p :     4.166288
      px      :     1.303204
      py      :     1.596232
      dz2     :     0.010038  d :     0.029301
      dxz     :     0.006533
      dyz     :     0.002895
      dx2y2   :     0.006393
      dxy     :     0.003443
 34 H s       :     0.741539  s :     0.741539
 35 Cls       :     5.952617  s :     5.952617
      pz      :     3.607823  p :    11.053983
      px      :     3.527511
      py      :     3.918649
      dz2     :     0.004301  d :     0.038682
      dxz     :     0.018628
      dyz     :     0.003897
      dx2y2   :     0.006708
      dxy     :     0.005147
 36 H s       :     0.697745  s :     0.697745
 37 H s       :     0.585600  s :     0.585600
 38 H s       :     0.594401  s :     0.594401


                     *******************************
                     * LOEWDIN POPULATION ANALYSIS *
                     *******************************

----------------------
LOEWDIN ATOMIC CHARGES
----------------------
   0 C :   -0.094143
   1 C :   -0.213280
   2 C :   -0.226405
   3 C :   -0.127445
   4 C :   -0.083775
   5 C :    0.167417
   6 C :   -0.197040
   7 C :   -0.348728
   8 C :   -0.326270
   9 C :   -0.333781
  10 C :   -0.163061
  11 C :    0.116886
  12 C :   -0.095700
  13 C :   -0.084063
  14 C :   -0.139554
  15 C :   -0.044121
  16 H :    0.154298
  17 H :    0.123019
  18 H :    0.139016
  19 H :    0.149794
  20 H :    0.144182
  21 H :    0.147269
  22 H :    0.142109
  23 H :    0.129151
  24 H :    0.152719
  25 H :    0.147585
  26 H :    0.140563
  27 H :    0.152331
  28 H :    0.137008
  29 H :    0.135376
  30 H :    0.138403
  31 H :    0.152546
  32 H :    0.161825
  33 N :   -0.275543
  34 H :    0.164255
  35 Cl:    0.129646
  36 H :    0.176891
  37 H :    0.269392
  38 H :    0.281230

-------------------------------
LOEWDIN REDUCED ORBITAL CHARGES
-------------------------------
  0 C s       :     2.856436  s :     2.856436
      pz      :     1.060713  p :     3.117812
      px      :     1.017189
      py      :     1.039910
      dz2     :     0.021338  d :     0.119895
      dxz     :     0.028992
      dyz     :     0.026920
      dx2y2   :     0.019100
      dxy     :     0.023546
  1 C s       :     2.931696  s :     2.931696
      pz      :     1.094177  p :     3.200075
      px      :     1.071370
      py      :     1.034529
      dz2     :     0.016803  d :     0.081509
      dxz     :     0.020571
      dyz     :     0.014675
      dx2y2   :     0.009966
      dxy     :     0.019494
  2 C s       :     2.915821  s :     2.915821
      pz      :     1.025373  p :     3.226400
      px      :     1.109822
      py      :     1.091205
      dz2     :     0.021533  d :     0.084183
      dxz     :     0.012964
      dyz     :     0.017788
      dx2y2   :     0.023987
      dxy     :     0.007912
  3 C s       :     2.884617  s :     2.884617
      pz      :     1.082562  p :     3.136708
      px      :     1.013754
      py      :     1.040392
      dz2     :     0.020848  d :     0.106120
      dxz     :     0.018055
      dyz     :     0.025468
      dx2y2   :     0.026760
      dxy     :     0.014987
  4 C s       :     2.855130  s :     2.855130
      pz      :     1.001756  p :     3.113123
      px      :     1.042848
      py      :     1.068519
      dz2     :     0.029914  d :     0.115521
      dxz     :     0.018749
      dyz     :     0.021787
      dx2y2   :     0.027218
      dxy     :     0.017853
  5 C s       :     2.900064  s :     2.900064
      pz      :     1.070641  p :     2.830466
      px      :     1.044047
      py      :     0.715778
      dz2     :     0.023200  d :     0.102054
      dxz     :     0.032646
      dyz     :     0.010618
      dx2y2   :     0.015765
      dxy     :     0.019824
  6 C s       :     2.920181  s :     2.920181
      pz      :     1.029956  p :     3.188039
      px      :     1.084088
      py      :     1.073995
      dz2     :     0.012306  d :     0.088820
      dxz     :     0.017529
      dyz     :     0.024977
      dx2y2   :     0.019071
      dxy     :     0.014936
  7 C s       :     2.949345  s :     2.949345
      pz      :     1.077925  p :     3.331801
      px      :     1.150250
      py      :     1.103625
      dz2     :     0.018907  d :     0.067582
      dxz     :     0.005762
      dyz     :     0.019071
      dx2y2   :     0.005363
      dxy     :     0.018478
  8 C s       :     2.961140  s :     2.961140
      pz      :     1.082602  p :     3.299152
      px      :     1.131402
      py      :     1.085148
      dz2     :     0.007479  d :     0.065979
      dxz     :     0.018703
      dyz     :     0.015636
      dx2y2   :     0.017951
      dxy     :     0.006209
  9 C s       :     2.953807  s :     2.953807
      pz      :     1.128813  p :     3.312612
      px      :     1.134608
      py      :     1.049191
      dz2     :     0.010841  d :     0.067362
      dxz     :     0.009772
      dyz     :     0.017632
      dx2y2   :     0.021118
      dxy     :     0.007999
 10 C s       :     2.890757  s :     2.890757
      pz      :     1.093842  p :     3.188959
      px      :     1.043673
      py      :     1.051443
      dz2     :     0.026577  d :     0.083345
      dxz     :     0.026825
      dyz     :     0.004900
      dx2y2   :     0.015941
      dxy     :     0.009103
 11 C s       :     2.838895  s :     2.838895
      pz      :     1.013605  p :     2.891574
      px      :     1.039720
      py      :     0.838249
      dz2     :     0.034705  d :     0.152645
      dxz     :     0.047263
      dyz     :     0.023969
      dx2y2   :     0.021930
      dxy     :     0.024779
 12 C s       :     2.838098  s :     2.838098
      pz      :     1.029305  p :     3.155878
      px      :     1.053527
      py      :     1.073046
      dz2     :     0.030916  d :     0.101724
      dxz     :     0.037667
      dyz     :     0.009398
      dx2y2   :     0.015036
      dxy     :     0.008707
 13 C s       :     2.898289  s :     2.898289
      pz      :     1.090786  p :     3.097553
      px      :     1.064996
      py      :     0.941770
      dz2     :     0.022900  d :     0.088222
      dxz     :     0.028748
      dyz     :     0.003966
      dx2y2   :     0.015335
      dxy     :     0.017272
 14 C s       :     2.893702  s :     2.893702
      pz      :     1.033685  p :     3.124795
      px      :     1.038826
      py      :     1.052284
      dz2     :     0.034243  d :     0.121057
      dxz     :     0.042869
      dyz     :     0.011516
      dx2y2   :     0.016781
      dxy     :     0.015649
 15 C s       :     2.910322  s :     2.910322
      pz      :     1.076797  p :     3.043148
      px      :     1.110220
      py      :     0.856131
      dz2     :     0.029582  d :     0.090651
      dxz     :     0.028028
      dyz     :     0.015592
      dx2y2   :     0.011537
      dxy     :     0.005912
 16 H s       :     0.845702  s :     0.845702
 17 H s       :     0.876981  s :     0.876981
 18 H s       :     0.860984  s :     0.860984
 19 H s       :     0.850206  s :     0.850206
 20 H s       :     0.855818  s :     0.855818
 21 H s       :     0.852731  s :     0.852731
 22 H s       :     0.857891  s :     0.857891
 23 H s       :     0.870849  s :     0.870849
 24 H s       :     0.847281  s :     0.847281
 25 H s       :     0.852415  s :     0.852415
 26 H s       :     0.859437  s :     0.859437
 27 H s       :     0.847669  s :     0.847669
 28 H s       :     0.862992  s :     0.862992
 29 H s       :     0.864624  s :     0.864624
 30 H s       :     0.861597  s :     0.861597
 31 H s       :     0.847454  s :     0.847454
 32 H s       :     0.838175  s :     0.838175
 33 N s       :     3.129980  s :     3.129980
      pz      :     1.252154  p :     4.084662
      px      :     1.258292
      py      :     1.574217
      dz2     :     0.021208  d :     0.060901
      dxz     :     0.016226
      dyz     :     0.005923
      dx2y2   :     0.011056
      dxy     :     0.006488
 34 H s       :     0.835745  s :     0.835745
 35 Cls       :     5.773698  s :     5.773698
      pz      :     3.613640  p :    11.052412
      px      :     3.536018
      py      :     3.902754
      dz2     :     0.004508  d :     0.044244
      dxz     :     0.022214
      dyz     :     0.004312
      dx2y2   :     0.007450
      dxy     :     0.005760
 36 H s       :     0.823109  s :     0.823109
 37 H s       :     0.730608  s :     0.730608
 38 H s       :     0.718770  s :     0.718770


                      *****************************
                      * MAYER POPULATION ANALYSIS *
                      *****************************

  NA   - Mulliken gross atomic population
  ZA   - Total nuclear charge
  QA   - Mulliken gross atomic charge
  VA   - Mayer's total valence
  BVA  - Mayer's bonded valence
  FA   - Mayer's free valence

  ATOM       NA         ZA         QA         VA         BVA        FA
  0 C      6.2180     6.0000    -0.2180     3.7465     3.7465    -0.0000
  1 C      6.4592     6.0000    -0.4592     3.6236     3.6236    -0.0000
  2 C      6.4257     6.0000    -0.4257     3.6624     3.6624     0.0000
  3 C      6.2475     6.0000    -0.2475     3.6753     3.6753    -0.0000
  4 C      6.1664     6.0000    -0.1664     3.7217     3.7217    -0.0000
  5 C      5.6888     6.0000     0.3112     3.3538     3.3538     0.0000
  6 C      6.4047     6.0000    -0.4047     3.5745     3.5745     0.0000
  7 C      6.6594     6.0000    -0.6594     3.6844     3.6844     0.0000
  8 C      6.6363     6.0000    -0.6363     3.6379     3.6379     0.0000
  9 C      6.6241     6.0000    -0.6241     3.6675     3.6675     0.0000
 10 C      6.3019     6.0000    -0.3019     3.7441     3.7441    -0.0000
 11 C      5.6383     6.0000     0.3617     3.5886     3.5886    -0.0000
 12 C      5.9784     6.0000     0.0216     3.6079     3.6079    -0.0000
 13 C      6.2047     6.0000    -0.2047     3.7016     3.7016     0.0000
 14 C      6.0323     6.0000    -0.0323     3.8235     3.8235     0.0000
 15 C      6.1580     6.0000    -0.1580     3.7595     3.7595    -0.0000
 16 H      0.7172     1.0000     0.2828     0.8898     0.8898    -0.0000
 17 H      0.7709     1.0000     0.2291     0.9138     0.9138    -0.0000
 18 H      0.7449     1.0000     0.2551     0.9045     0.9045     0.0000
 19 H      0.7278     1.0000     0.2722     0.8940     0.8940     0.0000
 20 H      0.7423     1.0000     0.2577     0.9131     0.9131     0.0000
 21 H      0.7341     1.0000     0.2659     0.9027     0.9027     0.0000
 22 H      0.7337     1.0000     0.2663     0.9019     0.9019     0.0000
 23 H      0.7780     1.0000     0.2220     0.9196     0.9196     0.0000
 24 H      0.7386     1.0000     0.2614     0.9005     0.9005     0.0000
 25 H      0.7517     1.0000     0.2483     0.9050     0.9050     0.0000
 26 H      0.7542     1.0000     0.2458     0.9064     0.9064     0.0000
 27 H      0.7339     1.0000     0.2661     0.9000     0.9000     0.0000
 28 H      0.7487     1.0000     0.2513     0.9041     0.9041     0.0000
 29 H      0.7683     1.0000     0.2317     0.9120     0.9120    -0.0000
 30 H      0.7585     1.0000     0.2415     0.9085     0.9085     0.0000
 31 H      0.7391     1.0000     0.2609     0.8996     0.8996     0.0000
 32 H      0.7281     1.0000     0.2719     0.8925     0.8925     0.0000
 33 N      7.8220     7.0000    -0.8220     3.0011     3.0011     0.0000
 34 H      0.7415     1.0000     0.2585     0.9167     0.9167     0.0000
 35 Cl    17.0453    17.0000    -0.0453     1.1738     1.1738     0.0000
 36 H      0.6977     1.0000     0.3023     0.8766     0.8766     0.0000
 37 H      0.5856     1.0000     0.4144     0.8227     0.8227     0.0000
 38 H      0.5944     1.0000     0.4056     0.8201     0.8201     0.0000

  Mayer bond orders larger than 0.100000
B(  0-C ,  1-C ) :   0.9046 B(  0-C ,  5-C ) :   0.9787 B(  0-C ,  6-C ) :   0.9211 
B(  0-C ,  7-C ) :   0.9892 B(  1-C ,  2-C ) :   0.9344 B(  1-C , 16-H ) :   0.8980 
B(  1-C , 17-H ) :   0.9091 B(  2-C ,  3-C ) :   0.9793 B(  2-C , 18-H ) :   0.9127 
B(  2-C , 19-H ) :   0.9086 B(  3-C ,  4-C ) :   0.9395 B(  3-C ,  6-C ) :   0.9324 
B(  3-C , 20-H ) :   0.9084 B(  4-C ,  5-C ) :   0.9629 B(  4-C ,  8-C ) :   0.9315 
B(  4-C ,  9-C ) :   0.9734 B(  5-C , 12-C ) :   1.3627 B(  6-C , 21-H ) :   0.9071 
B(  6-C , 22-H ) :   0.9064 B(  7-C , 23-H ) :   0.9143 B(  7-C , 24-H ) :   0.9072 
B(  7-C , 25-H ) :   0.9160 B(  8-C , 26-H ) :   0.9149 B(  8-C , 27-H ) :   0.9041 
B(  8-C , 28-H ) :   0.9012 B(  9-C , 29-H ) :   0.9194 B(  9-C , 30-H ) :   0.9087 
B(  9-C , 31-H ) :   0.9074 B( 10-C , 11-C ) :   1.2116 B( 10-C , 15-C ) :   1.5573 
B( 10-C , 32-H ) :   0.8968 B( 11-C , 12-C ) :   1.1155 B( 11-C , 33-N ) :   1.2086 
B( 12-C , 13-C ) :   1.1682 B( 13-C , 14-C ) :   1.5229 B( 13-C , 34-H ) :   0.8794 
B( 14-C , 15-C ) :   1.1914 B( 14-C , 35-Cl) :   1.0831 B( 15-C , 36-H ) :   0.8811 
B( 33-N , 37-H ) :   0.7707 B( 33-N , 38-H ) :   0.8120 

-------
TIMINGS
-------

Total SCF time: 0 days 0 hours 5 min 53 sec 

Total time                  ....     353.953 sec
Sum of individual times     ....     347.934 sec  ( 98.3%)

Fock matrix formation       ....     323.295 sec  ( 91.3%)
  Split-RI-J                ....      22.617 sec  (  7.0% of F)
  Chain of spheres X        ....     241.827 sec  ( 74.8% of F)
  XC integration            ....      47.887 sec  ( 14.8% of F)
    Basis function eval.    ....      15.345 sec  ( 32.0% of XC)
    Density eval.           ....      10.125 sec  ( 21.1% of XC)
    XC-Functional eval.     ....       3.355 sec  (  7.0% of XC)
    XC-Potential eval.      ....       5.268 sec  ( 11.0% of XC)
Diagonalization             ....       1.442 sec  (  0.4%)
Density matrix formation    ....       0.281 sec  (  0.1%)
Population analysis         ....       0.089 sec  (  0.0%)
Initial guess               ....       0.121 sec  (  0.0%)
Orbital Transformation      ....       0.000 sec  (  0.0%)
Orbital Orthonormalization  ....       0.000 sec  (  0.0%)
DIIS solution               ....       2.397 sec  (  0.7%)
SOSCF solution              ....       2.625 sec  (  0.7%)
Grid generation             ....      17.685 sec  (  5.0%)

Maximum memory used throughout the entire SCF-calculation: 122.0 MB


-------------------------------------------------------------------------------
                          DFT DISPERSION CORRECTION                            
                                                                               
                              DFTD3 V3.1  Rev 1                                
                          USING Becke-Johnson damping                          
-------------------------------------------------------------------------------
The PBEh-3c composite method is recognized
Using three-body term ABC
Active option DFTDOPT                   ...         4   

molecular C6(AA) [au] = 15265.852342 


            DFT-D V3
 parameters
 s6 scaling factor         :     1.0000 
 a1 scaling factor         :     0.4860 
 s8 scaling factor         :     0.0000 
 a2 scaling factor         :     4.5000 
 Damping factor alpha9(ATM):    16.0000 
 ad hoc parameters k1-k3   :    16.0000     1.3333    -4.0000 

 Edisp/kcal,au: -19.692159323580  -0.031381450061 
 E6   /kcal   : -19.994398641 
 E8   /kcal   :  -0.000000000 
 E6(ABC)      :   0.302239318 
 % E8         :   0.000000000 
 % E6(ABC)    :  -1.534820600 

-------------------------   ----------------
Dispersion correction           -0.031381450
-------------------------   ----------------

------------------   -----------------
gCP correction             0.058405965
------------------   -----------------

-------------------------   --------------------
FINAL SINGLE POINT ENERGY     -1135.074465262265
-------------------------   --------------------


                            ***************************************
                            *     ORCA property calculations      *
                            ***************************************

                                    ---------------------
                                    Active property flags
                                    ---------------------
   (+) Dipole Moment


------------------------------------------------------------------------------
                       ORCA ELECTRIC PROPERTIES CALCULATION
------------------------------------------------------------------------------

Dipole Moment Calculation                       ... on
Quadrupole Moment Calculation                   ... off
Polarizability Calculation                      ... off
GBWName                                         ... pbeh-3c.gbw
Electron density                                ... pbeh-3c.scfp
The origin for moment calculation is the CENTER OF MASS  = (-1.606965,  0.011267 -0.097823)

-------------
DIPOLE MOMENT
-------------
                                X             Y             Z
Electronic contribution:    -30.03854      -0.06065       0.01346
Nuclear contribution   :     31.28657      -0.25494       1.72770
                        -----------------------------------------
Total Dipole Moment    :      1.24803      -0.31558       1.74116
                        -----------------------------------------
Magnitude (a.u.)       :      2.16536
Magnitude (Debye)      :      5.50392



--------------------
Rotational spectrum 
--------------------
 
Rotational constants in cm-1:     0.021232     0.009317     0.007407 
Rotational constants in MHz :   636.517201   279.307417   222.054088 

 Dipole components along the rotational axes: 
x,y,z [a.u.] :     1.248036     1.741155    -0.315581 
x,y,z [Debye]:     3.172254     4.425664    -0.802144 

 

Timings for individual modules:

Sum of individual times         ...      357.730 sec (=   5.962 min)
GTO integral calculation        ...        2.769 sec (=   0.046 min)   0.8 %
SCF iterations                  ...      354.960 sec (=   5.916 min)  99.2 %
                             ****ORCA TERMINATED NORMALLY****
TOTAL RUN TIME: 0 days 0 hours 5 minutes 59 seconds 905 msec
