
                                 *****************
                                 * O   R   C   A *
                                 *****************

                                            #,                                       
                                            ###                                      
                                            ####                                     
                                            #####                                    
                                            ######                                   
                                           ########,                                 
                                     ,,################,,,,,                         
                               ,,#################################,,                 
                          ,,##########################################,,             
                       ,#########################################, ''#####,          
                    ,#############################################,,   '####,        
                  ,##################################################,,,,####,       
                ,###########''''           ''''###############################       
              ,#####''   ,,,,##########,,,,          '''####'''          '####       
            ,##' ,,,,###########################,,,                        '##       
           ' ,,###''''                  '''############,,,                           
         ,,##''                                '''############,,,,        ,,,,,,###''
      ,#''                                            '''#######################'''  
     '                                                          ''''####''''         
             ,#######,   #######,   ,#######,      ##                                
            ,#'     '#,  ##    ##  ,#'     '#,    #''#        ######   ,####,        
            ##       ##  ##   ,#'  ##            #'  '#       #        #'  '#        
            ##       ##  #######   ##           ,######,      #####,   #    #        
            '#,     ,#'  ##    ##  '#,     ,#' ,#      #,         ##   #,  ,#        
             '#######'   ##     ##  '#######'  #'      '#     #####' # '####'        



                  #######################################################
                  #                        -***-                        #
                  #          Department of theory and spectroscopy      #
                  #    Directorship and core code : Frank Neese         #
                  #        Max Planck Institute fuer Kohlenforschung    #
                  #                Kaiser Wilhelm Platz 1               #
                  #                 D-45470 Muelheim/Ruhr               #
                  #                      Germany                        #
                  #                                                     #
                  #                  All rights reserved                #
                  #                        -***-                        #
                  #######################################################


                         Program Version 5.0.3 -  RELEASE  -


 With contributions from (in alphabetic order):
   Daniel Aravena         : Magnetic Suceptibility
   Michael Atanasov       : Ab Initio Ligand Field Theory (pilot matlab implementation)
   Alexander A. Auer      : GIAO ZORA, VPT2 properties, NMR spectrum
   Ute Becker             : Parallelization
   Giovanni Bistoni       : ED, misc. LED, open-shell LED, HFLD
   Martin Brehm           : Molecular dynamics
   Dmytro Bykov           : SCF Hessian
   Vijay G. Chilkuri      : MRCI spin determinant printing, contributions to CSF-ICE
   Dipayan Datta          : RHF DLPNO-CCSD density
   Achintya Kumar Dutta   : EOM-CC, STEOM-CC
   Dmitry Ganyushin       : Spin-Orbit,Spin-Spin,Magnetic field MRCI
   Miquel Garcia          : C-PCM and meta-GGA Hessian, CC/C-PCM, Gaussian charge scheme
   Yang Guo               : DLPNO-NEVPT2, F12-NEVPT2, CIM, IAO-localization
   Andreas Hansen         : Spin unrestricted coupled pair/coupled cluster methods
   Benjamin Helmich-Paris : MC-RPA, TRAH-SCF, COSX integrals
   Lee Huntington         : MR-EOM, pCC
   Robert Izsak           : Overlap fitted RIJCOSX, COSX-SCS-MP3, EOM
   Marcus Kettner         : VPT2
   Christian Kollmar      : KDIIS, OOCD, Brueckner-CCSD(T), CCSD density, CASPT2, CASPT2-K
   Simone Kossmann        : Meta GGA functionals, TD-DFT gradient, OOMP2, MP2 Hessian
   Martin Krupicka        : Initial AUTO-CI
   Lucas Lang             : DCDCAS
   Marvin Lechner         : AUTO-CI (C++ implementation), FIC-MRCC
   Dagmar Lenk            : GEPOL surface, SMD
   Dimitrios Liakos       : Extrapolation schemes; Compound Job, initial MDCI parallelization
   Dimitrios Manganas     : Further ROCIS development; embedding schemes
   Dimitrios Pantazis     : SARC Basis sets
   Anastasios Papadopoulos: AUTO-CI, single reference methods and gradients
   Taras Petrenko         : DFT Hessian,TD-DFT gradient, ASA, ECA, R-Raman, ABS, FL, XAS/XES, NRVS
   Peter Pinski           : DLPNO-MP2, DLPNO-MP2 Gradient
   Christoph Reimann      : Effective Core Potentials
   Marius Retegan         : Local ZFS, SOC
   Christoph Riplinger    : Optimizer, TS searches, QM/MM, DLPNO-CCSD(T), (RO)-DLPNO pert. Triples
   Tobias Risthaus        : Range-separated hybrids, TD-DFT gradient, RPA, STAB
   Michael Roemelt        : Original ROCIS implementation
   Masaaki Saitow         : Open-shell DLPNO-CCSD energy and density
   Barbara Sandhoefer     : DKH picture change effects
   Avijit Sen             : IP-ROCIS
   Kantharuban Sivalingam : CASSCF convergence, NEVPT2, FIC-MRCI
   Bernardo de Souza      : ESD, SOC TD-DFT
   Georgi Stoychev        : AutoAux, RI-MP2 NMR, DLPNO-MP2 response
   Willem Van den Heuvel  : Paramagnetic NMR
   Boris Wezisla          : Elementary symmetry handling
   Frank Wennmohs         : Technical directorship


 We gratefully acknowledge several colleagues who have allowed us to
 interface, adapt or use parts of their codes:
   Stefan Grimme, W. Hujo, H. Kruse, P. Pracht,  : VdW corrections, initial TS optimization,
                  C. Bannwarth, S. Ehlert          DFT functionals, gCP, sTDA/sTD-DF
   Ed Valeev, F. Pavosevic, A. Kumar             : LibInt (2-el integral package), F12 methods
   Garnet Chan, S. Sharma, J. Yang, R. Olivares  : DMRG
   Ulf Ekstrom                                   : XCFun DFT Library
   Mihaly Kallay                                 : mrcc  (arbitrary order and MRCC methods)
   Jiri Pittner, Ondrej Demel                    : Mk-CCSD
   Frank Weinhold                                : gennbo (NPA and NBO analysis)
   Christopher J. Cramer and Donald G. Truhlar   : smd solvation model
   Lars Goerigk                                  : TD-DFT with DH, B97 family of functionals
   V. Asgeirsson, H. Jonsson                     : NEB implementation
   FAccTs GmbH                                   : IRC, NEB, NEB-TS, DLPNO-Multilevel, CI-OPT
                                                   MM, QMMM, 2- and 3-layer-ONIOM, Crystal-QMMM,
                                                   LR-CPCM, SF, NACMEs, symmetry and pop. for TD-DFT,
                                                   nearIR, NL-DFT gradient (VV10), updates on ESD,
                                                   ML-optimized integration grids
   S Lehtola, MJT Oliveira, MAL Marques          : LibXC Library
   Liviu Ungur et al                             : ANISO software


 Your calculation uses the libint2 library for the computation of 2-el integrals
 For citations please refer to: http://libint.valeyev.net

 Your ORCA version has been built with support for libXC version: 5.1.0
 For citations please refer to: https://tddft.org/programs/libxc/

 This ORCA versions uses:
   CBLAS   interface :  Fast vector & matrix operations
   LAPACKE interface :  Fast linear algebra routines
   SCALAPACK package :  Parallel linear algebra routines
   Shared memory     :  Shared parallel matrices
   BLAS/LAPACK       :  OpenBLAS 0.3.15  USE64BITINT DYNAMIC_ARCH NO_AFFINITY Haswell SINGLE_THREADED
        Core in use  :  Haswell
   Copyright (c) 2011-2014, The OpenBLAS Project




***************************************
The coordinates will be read from file: P10.xyz
***************************************


Your calculation utilizes the geometrical counterpoise correction gCP
Please cite in your paper:
H.Kruse, S. Grimme J.Chem.Phys., 136, (2012), 154101 
   

Your calculation utilizes the atom-pairwise dispersion correction
with the Becke-Johnson damping scheme (D3BJ)
Cite in your paper:
S.Grimme, S.Ehrlich, L.Goerigk, J Comput Chem, (2011), 32, 1456–1465 
S.Grimme, J.Antony, S.Ehrlich and H.Krieg, J.Chem.Phys., 132, (2010), 154104 
   

Your calculation employs the composite approach PBEh-3c.
Please cite in your paper:
S. Grimme, J. G. Brandenburg, C. Bannwarth, A. Hansen J.Chem.Phys., 143, (2015), 054107 
   

================================================================================

----- Orbital basis set information -----
Your calculation utilizes the basis: def2-mSVP

----- AuxJ basis set information -----
Your calculation utilizes the auxiliary basis: def2/J
   F. Weigend, Phys. Chem. Chem. Phys. 8, 1057 (2006).

================================================================================
                                        WARNINGS
                       Please study these warnings very carefully!
================================================================================


INFO   : the flag for use of the SHARK integral package has been found!

================================================================================
                                       INPUT FILE
================================================================================
NAME = pbeh-3c.inp
|  1> ! PBEh-3c def2/J TightSCF DefGrid3
|  2> 
|  3> %maxcore 60000
|  4> 
|  5> %pal
|  6> nprocs 4
|  7> end
|  8> 
|  9> *xyzfile 0 1 P10.xyz
| 10> 
| 11>                          ****END OF INPUT****
================================================================================

                       ****************************
                       * Single Point Calculation *
                       ****************************

---------------------------------
CARTESIAN COORDINATES (ANGSTROEM)
---------------------------------
  C      0.000000   -2.556848   -0.299506
  C      0.000000   -1.282382    0.546081
  C      0.000000    0.000000   -0.289752
  C      0.000000    1.282382    0.546081
  C      0.000000    2.556848   -0.299506
  H      0.000000   -3.452237    0.326766
  H     -0.882040   -2.603307   -0.944406
  H      0.882040   -2.603307   -0.944406
  H      0.875425   -1.282445    1.205307
  H     -0.875425   -1.282445    1.205307
  H      0.875927    0.000000   -0.950267
  H     -0.875927    0.000000   -0.950267
  H      0.875425    1.282445    1.205307
  H     -0.875425    1.282445    1.205307
  H      0.882040    2.603307   -0.944406
  H      0.000000    3.452237    0.326766
  H     -0.882040    2.603307   -0.944406

----------------------------
CARTESIAN COORDINATES (A.U.)
----------------------------
  NO LB      ZA    FRAG     MASS         X           Y           Z
   0 C     6.0000    0    12.011    0.000000   -4.831742   -0.565985
   1 C     6.0000    0    12.011    0.000000   -2.423352    1.031944
   2 C     6.0000    0    12.011    0.000000    0.000000   -0.547552
   3 C     6.0000    0    12.011    0.000000    2.423352    1.031944
   4 C     6.0000    0    12.011    0.000000    4.831742   -0.565985
   5 H     1.0000    0     1.008    0.000000   -6.523782    0.617497
   6 H     1.0000    0     1.008   -1.666813   -4.919538   -1.784669
   7 H     1.0000    0     1.008    1.666813   -4.919538   -1.784669
   8 H     1.0000    0     1.008    1.654314   -2.423470    2.277701
   9 H     1.0000    0     1.008   -1.654314   -2.423470    2.277701
  10 H     1.0000    0     1.008    1.655262    0.000000   -1.795743
  11 H     1.0000    0     1.008   -1.655262    0.000000   -1.795743
  12 H     1.0000    0     1.008    1.654314    2.423470    2.277701
  13 H     1.0000    0     1.008   -1.654314    2.423470    2.277701
  14 H     1.0000    0     1.008    1.666813    4.919538   -1.784669
  15 H     1.0000    0     1.008    0.000000    6.523782    0.617497
  16 H     1.0000    0     1.008   -1.666813    4.919538   -1.784669

--------------------------------
INTERNAL COORDINATES (ANGSTROEM)
--------------------------------
 C      0   0   0     0.000000000000     0.00000000     0.00000000
 C      1   0   0     1.529470642108     0.00000000     0.00000000
 C      2   1   0     1.530725867095   113.34079755     0.00000000
 C      3   2   1     1.530725867095   113.80888225   180.00000000
 C      4   3   2     1.529470642108   113.34079755   180.00000000
 H      1   2   3     1.092674490446   111.46581883   180.00000000
 H      1   2   3     1.093640035622   111.18694123   300.11900648
 H      1   2   3     1.093640035622   111.18694123    59.88099352
 H      2   1   3     1.095877943691   109.42226128   237.89078400
 H      2   1   3     1.095877943691   109.42226128   122.10921600
 H      3   2   1     1.097054136424   109.19341725   302.28202336
 H      3   2   1     1.097054136424   109.19341725    57.71797664
 H      4   3   2     1.095877943691   109.17877370    57.75525571
 H      4   3   2     1.095877943691   109.17877370   302.24474429
 H      5   4   3     1.093640035622   111.18694123   300.11900648
 H      5   4   3     1.092674490446   111.46581883   180.00000000
 H      5   4   3     1.093640035622   111.18694123    59.88099352

---------------------------
INTERNAL COORDINATES (A.U.)
---------------------------
 C      0   0   0     0.000000000000     0.00000000     0.00000000
 C      1   0   0     2.890280643457     0.00000000     0.00000000
 C      2   1   0     2.892652674920   113.34079755     0.00000000
 C      3   2   1     2.892652674920   113.80888225   180.00000000
 C      4   3   2     2.890280643457   113.34079755   180.00000000
 H      1   2   3     2.064855540465   111.46581883   180.00000000
 H      1   2   3     2.066680156418   111.18694123   300.11900648
 H      1   2   3     2.066680156418   111.18694123    59.88099352
 H      2   1   3     2.070909189780   109.42226128   237.89078400
 H      2   1   3     2.070909189780   109.42226128   122.10921600
 H      3   2   1     2.073131871927   109.19341725   302.28202336
 H      3   2   1     2.073131871927   109.19341725    57.71797664
 H      4   3   2     2.070909189780   109.17877370    57.75525571
 H      4   3   2     2.070909189780   109.17877370   302.24474429
 H      5   4   3     2.066680156418   111.18694123   300.11900648
 H      5   4   3     2.064855540465   111.46581883   180.00000000
 H      5   4   3     2.066680156418   111.18694123    59.88099352

---------------------
BASIS SET INFORMATION
---------------------
There are 2 groups of distinct atoms

 Group   1 Type C   : 8s4p1d contracted to 4s2p1d pattern {5111/31/1}
 Group   2 Type H   : 4s contracted to 2s pattern {31}

Atom   0C    basis set group =>   1
Atom   1C    basis set group =>   1
Atom   2C    basis set group =>   1
Atom   3C    basis set group =>   1
Atom   4C    basis set group =>   1
Atom   5H    basis set group =>   2
Atom   6H    basis set group =>   2
Atom   7H    basis set group =>   2
Atom   8H    basis set group =>   2
Atom   9H    basis set group =>   2
Atom  10H    basis set group =>   2
Atom  11H    basis set group =>   2
Atom  12H    basis set group =>   2
Atom  13H    basis set group =>   2
Atom  14H    basis set group =>   2
Atom  15H    basis set group =>   2
Atom  16H    basis set group =>   2
---------------------------------
AUXILIARY/J BASIS SET INFORMATION
---------------------------------
There are 2 groups of distinct atoms

 Group   1 Type C   : 12s5p4d2f1g contracted to 6s4p3d1f1g pattern {711111/2111/211/2/1}
 Group   2 Type H   : 5s2p1d contracted to 3s1p1d pattern {311/2/1}

Atom   0C    basis set group =>   1
Atom   1C    basis set group =>   1
Atom   2C    basis set group =>   1
Atom   3C    basis set group =>   1
Atom   4C    basis set group =>   1
Atom   5H    basis set group =>   2
Atom   6H    basis set group =>   2
Atom   7H    basis set group =>   2
Atom   8H    basis set group =>   2
Atom   9H    basis set group =>   2
Atom  10H    basis set group =>   2
Atom  11H    basis set group =>   2
Atom  12H    basis set group =>   2
Atom  13H    basis set group =>   2
Atom  14H    basis set group =>   2
Atom  15H    basis set group =>   2
Atom  16H    basis set group =>   2


           ************************************************************
           *        Program running with 4 parallel MPI-processes     *
           *              working on a common directory               *
           ************************************************************
------------------------------------------------------------------------------
                           ORCA GTO INTEGRAL CALCULATION
                           -- RI-GTO INTEGRALS CHOSEN --
------------------------------------------------------------------------------
------------------------------------------------------------------------------
                   ___                                                        
                  /   \      - P O W E R E D   B Y -                         
                 /     \                                                     
                 |  |  |   _    _      __       _____    __    __             
                 |  |  |  | |  | |    /  \     |  _  \  |  |  /  |          
                  \  \/   | |  | |   /    \    | | | |  |  | /  /          
                 / \  \   | |__| |  /  /\  \   | |_| |  |  |/  /          
                |  |  |   |  __  | /  /__\  \  |    /   |      \           
                |  |  |   | |  | | |   __   |  |    \   |  |\   \          
                \     /   | |  | | |  |  |  |  | |\  \  |  | \   \       
                 \___/    |_|  |_| |__|  |__|  |_| \__\ |__|  \__/        
                                                                              
                      - O R C A' S   B I G   F R I E N D -                    
                                      &                                       
                       - I N T E G R A L  F E E D E R -                       
                                                                              
 v1 FN, 2020, v2 2021                                                         
------------------------------------------------------------------------------


Reading SHARK input file pbeh-3c.SHARKINP.tmp ... ok
----------------------
SHARK INTEGRAL PACKAGE
----------------------

Number of atoms                             ...     17
Number of basis functions                   ...     99
Number of shells                            ...     59
Maximum angular momentum                    ...      2
Integral batch strategy                     ... SHARK/LIBINT Hybrid
RI-J (if used) integral strategy            ... SPLIT-RIJ (Revised 2003 algorithm where possible)
Printlevel                                  ...      1
Contraction scheme used                     ... SEGMENTED contraction
Coulomb Range Separation                    ... NOT USED
Exchange Range Separation                   ... NOT USED
Finite Nucleus Model                        ... NOT USED
Auxiliary Coulomb fitting basis             ... AVAILABLE
   # of basis functions in Aux-J            ...    377
   # of shells in Aux-J                     ...    135
   Maximum angular momentum in Aux-J        ...      4
Auxiliary J/K fitting basis                 ... NOT available
Auxiliary Correlation fitting basis         ... NOT available
Auxiliary 'external' fitting basis          ... NOT available
Integral threshold                          ...     2.500000e-11
Primitive cut-off                           ...     2.500000e-12
Primitive pair pre-selection threshold      ...     2.500000e-12

Calculating pre-screening integrals         ... done (  0.1 sec) Dimension = 59
Organizing shell pair data                  ... done (  0.2 sec)
Shell pair information
Total number of shell pairs                 ...      1770
Shell pairs after pre-screening             ...      1641
Total number of primitive shell pairs       ...      6542
Primitive shell pairs kept                  ...      4465
          la=0 lb=0:    896 shell pairs
          la=1 lb=0:    426 shell pairs
          la=1 lb=1:     55 shell pairs
          la=2 lb=0:    200 shell pairs
          la=2 lb=1:     50 shell pairs
          la=2 lb=2:     14 shell pairs

Calculating one electron integrals          ... done (  0.1 sec)
Calculating RI/J V-Matrix + Cholesky decomp.... done (  0.5 sec)
Calculating Nuclear repulsion               ... done (  0.0 sec) ENN=    184.563183132086 Eh

SHARK setup successfully completed in   1.9 seconds

Maximum memory used throughout the entire GTOINT-calculation: 10.3 MB


           ************************************************************
           *        Program running with 4 parallel MPI-processes     *
           *              working on a common directory               *
           ************************************************************
-------------------------------------------------------------------------------
                                 ORCA SCF
-------------------------------------------------------------------------------

------------
SCF SETTINGS
------------
Hamiltonian:
 Density Functional     Method          .... DFT(GTOs)
 Exchange Functional    Exchange        .... PBE
   PBE kappa parameter   XKappa         ....  1.024500
   PBE mue parameter    XMuePBE         ....  0.123457
 Correlation Functional Correlation     .... PBE
   PBE beta parameter  CBetaPBE         ....  0.030000
 LDA part of GGA corr.  LDAOpt          .... PW91-LDA
 Gradients option       PostSCFGGA      .... off
 Hybrid DFT is turned on
   Fraction HF Exchange ScalHFX         ....  0.420000
   Scaling of DF-GGA-X  ScalDFX         ....  0.580000
   Scaling of DF-GGA-C  ScalDFC         ....  1.000000
   Scaling of DF-LDA-C  ScalLDAC        ....  1.000000
   Perturbative correction              ....  0.000000
   Density functional embedding theory  .... OFF
 RI-approximation to the Coulomb term is turned on
   Number of AuxJ basis functions       .... 377
   RIJ-ON(X) (HFX calculated with O(N)) .... on
   Number of AuxJ basis functions       .... 377
   RIJ-COSX (HFX calculated with COS-X)).... on


General Settings:
 Integral files         IntName         .... pbeh-3c
 Hartree-Fock type      HFTyp           .... RHF
 Total Charge           Charge          ....    0
 Multiplicity           Mult            ....    1
 Number of Electrons    NEL             ....   42
 Basis Dimension        Dim             ....   99
 Nuclear Repulsion      ENuc            ....    184.5631831321 Eh

Convergence Acceleration:
 DIIS                   CNVDIIS         .... on
   Start iteration      DIISMaxIt       ....    12
   Startup error        DIISStart       ....  0.200000
   # of expansion vecs  DIISMaxEq       ....     5
   Bias factor          DIISBfac        ....   1.050
   Max. coefficient     DIISMaxC        ....  10.000
 Trust-Rad. Augm. Hess. CNVTRAH         .... auto
   Auto Start mean grad. ratio tolernc. ....  1.125000
   Auto Start start iteration           ....    20
   Auto Start num. interpolation iter.  ....    10
   Max. Number of Micro iterations      ....    16
   Max. Number of Macro iterations      .... Maxiter - #DIIS iter
   Number of Davidson start vectors     ....     2
   Converg. threshold I  (grad. norm)   ....   1.000e-05
   Converg. threshold II (energy diff.) ....   1.000e-08
   Grad. Scal. Fac. for Micro threshold ....   0.100
   Minimum threshold for Micro iter.    ....   0.010
   NR start threshold (gradient norm)   ....   0.001
   Initial trust radius                 ....   0.400
   Minimum AH scaling param. (alpha)    ....   1.000
   Maximum AH scaling param. (alpha)    .... 1000.000
   Orbital update algorithm             .... Taylor
   White noise on init. David. guess    .... on
   Maximum white noise                  ....   0.010
   Quad. conv. algorithm                .... NR
   COSX micro iterations for RIJONX calc.... off
 SOSCF                  CNVSOSCF        .... on
   Start iteration      SOSCFMaxIt      ....   150
   Startup grad/error   SOSCFStart      ....  0.003300
 Level Shifting         CNVShift        .... on
   Level shift para.    LevelShift      ....    0.2500
   Turn off err/grad.   ShiftErr        ....    0.0010
 Zerner damping         CNVZerner       .... off
 Static damping         CNVDamp         .... on
   Fraction old density DampFac         ....    0.7000
   Max. Damping (<1)    DampMax         ....    0.9800
   Min. Damping (>=0)   DampMin         ....    0.0000
   Turn off err/grad.   DampErr         ....    0.1000
 Fernandez-Rico         CNVRico         .... off

SCF Procedure:
 Maximum # iterations   MaxIter         ....   125
 SCF integral mode      SCFMode         .... Direct
   Integral package                     .... SHARK and LIBINT hybrid scheme
 Reset frequency        DirectResetFreq ....    20
 Integral Threshold     Thresh          ....  2.500e-11 Eh
 Primitive CutOff       TCut            ....  2.500e-12 Eh

Convergence Tolerance:
 Convergence Check Mode ConvCheckMode   .... Total+1el-Energy
 Convergence forced     ConvForced      .... 0
 Energy Change          TolE            ....  1.000e-08 Eh
 1-El. energy change                    ....  1.000e-05 Eh
 Orbital Gradient       TolG            ....  1.000e-05
 Orbital Rotation angle TolX            ....  1.000e-05
 DIIS Error             TolErr          ....  5.000e-07


Diagonalization of the overlap matrix:
Smallest eigenvalue                        ... 5.337e-03
Time for diagonalization                   ...    0.002 sec
Threshold for overlap eigenvalues          ... 1.000e-08
Number of eigenvalues below threshold      ... 0
Time for construction of square roots      ...    0.190 sec
Total time needed                          ...    0.217 sec

--------------------------------
INITIAL GUESS: MINIMAL BASIS EHT
--------------------------------
The minimal basis has 37 functions
EHT matrix was diagonalized
Basis set overlap was calculated now projecting the orbitals
Using GuessMode=FMatrix for the initial guess
C*T matrix was formed
Effective Fockian was calculated
Effective Fockian was diagonalized
Initial density was built
                      ------------------
                      INITIAL GUESS DONE
                      ------------------
-------------------
DFT GRID GENERATION
-------------------

General Integration Accuracy     IntAcc      ... 4.959
Radial Grid Type                 RadialGrid  ... OptM3 with GC (2021)
Angular Grid (max. ang.)         AngularGrid ... 6 (Lebedev-590)
Angular grid pruning method      GridPruning ... 4 (adaptive)
Weight generation scheme         WeightScheme... Becke
Basis function cutoff            BFCut       ... 1.0000e-11
Integration weight cutoff        WCut        ... 1.0000e-14
Angular grids for H and He will be reduced by one unit
Partially contracted basis set               ... off
Rotationally invariant grid construction     ... off

Total number of grid points                  ...   175912
Total number of batches                      ...     2758
Average number of points per batch           ...       63
Average number of grid points per atom       ...    10348
Time for grid setup =    3.953 sec

--------------------
COSX GRID GENERATION
--------------------

GRIDX 1
-------
General Integration Accuracy     IntAcc      ... 4.020
Radial Grid Type                 RadialGrid  ... OptM3 with GC (2021)
Angular Grid (max. ang.)         AngularGrid ... 2 (Lebedev-110)
Angular grid pruning method      GridPruning ... 4 (adaptive)
Weight generation scheme         WeightScheme... Becke
Basis function cutoff            BFCut       ... 1.0000e-11
Integration weight cutoff        WCut        ... 1.0000e-14
Angular grids for H and He will be reduced by one unit
Partially contracted basis set               ... on
Rotationally invariant grid construction     ... off

Total number of grid points                  ...    18148
Total number of batches                      ...      293
Average number of points per batch           ...       61
Average number of grid points per atom       ...     1068
UseSFitting                                  ... on

GRIDX 2
-------
General Integration Accuracy     IntAcc      ... 4.338
Radial Grid Type                 RadialGrid  ... OptM3 with GC (2021)
Angular Grid (max. ang.)         AngularGrid ... 3 (Lebedev-194)
Angular grid pruning method      GridPruning ... 4 (adaptive)
Weight generation scheme         WeightScheme... Becke
Basis function cutoff            BFCut       ... 1.0000e-11
Integration weight cutoff        WCut        ... 1.0000e-14
Angular grids for H and He will be reduced by one unit
Partially contracted basis set               ... on
Rotationally invariant grid construction     ... off

Total number of grid points                  ...    39658
Total number of batches                      ...      629
Average number of points per batch           ...       63
Average number of grid points per atom       ...     2333
UseSFitting                                  ... on

GRIDX 3
-------
General Integration Accuracy     IntAcc      ... 4.871
Radial Grid Type                 RadialGrid  ... OptM3 with GC (2021)
Angular Grid (max. ang.)         AngularGrid ... 4 (Lebedev-302)
Angular grid pruning method      GridPruning ... 4 (adaptive)
Weight generation scheme         WeightScheme... Becke
Basis function cutoff            BFCut       ... 1.0000e-11
Integration weight cutoff        WCut        ... 1.0000e-14
Angular grids for H and He will be reduced by one unit
Partially contracted basis set               ... on
Rotationally invariant grid construction     ... off

Total number of grid points                  ...    79984
Total number of batches                      ...     1258
Average number of points per batch           ...       63
Average number of grid points per atom       ...     4705
UseSFitting                                  ... on

Time for X-Grid setup             =    4.701 sec

--------------
SCF ITERATIONS
--------------
ITER       Energy         Delta-E        Max-DP      RMS-DP      [F,P]     Damp
               ***  Starting incremental Fock matrix formation  ***
  0   -196.9842994303   0.000000000000 0.02435250  0.00223105  0.3964329 0.7000
  1   -197.0907166085  -0.106417178195 0.01788636  0.00169927  0.2808823 0.7000
                               ***Turning on DIIS***
  2   -197.1667933918  -0.076076783211 0.01240918  0.00126198  0.1981126 0.7000
  3   -197.2206865111  -0.053893119379 0.00858061  0.00097190  0.1396221 0.7000
  4   -197.2587835109  -0.038096999806 0.02170757  0.00241639  0.0978247 0.0000
                      *** Initiating the SOSCF procedure ***
                           *** Shutting down DIIS ***
                      *** Re-Reading the Fockian *** 
                      *** Removing any level shift *** 
ITER      Energy       Delta-E        Grad      Rot      Max-DP    RMS-DP
  5   -197.34907656  -0.0902930514  0.000863  0.000863  0.001443  0.000145
               *** Restarting incremental Fock matrix formation ***
  6   -197.34909628  -0.0000197139  0.000300  0.000519  0.000711  0.000049
  7   -197.34909702  -0.0000007400  0.000257  0.000190  0.000345  0.000019
  8   -197.34909868  -0.0000016597  0.000013  0.000028  0.000023  0.000002
  9   -197.34909868  -0.0000000031  0.000005  0.000007  0.000010  0.000001
                  ***Gradient check signals convergence***
              ***Rediagonalizing the Fockian in SOSCF/NRSCF***

               *****************************************************
               *                     SUCCESS                       *
               *           SCF CONVERGED AFTER  10 CYCLES          *
               *****************************************************

Old exchange energy                            =    -12.674241317 Eh
New exchange energy                            =    -12.674231295 Eh
Exchange energy change after final integration =      0.000010022 Eh
Total energy after final integration           =   -197.349088657 Eh
Final COS-X integration done in                =     2.346 sec

----------------
TOTAL SCF ENERGY
----------------

Total Energy       :         -197.34908866 Eh           -5370.14172 eV

Components:
Nuclear Repulsion  :          184.56318313 Eh            5022.21954 eV
Electronic Energy  :         -381.91227179 Eh          -10392.36125 eV
One Electron Energy:         -629.42191977 Eh          -17127.44118 eV
Two Electron Energy:          247.50964798 Eh            6735.07993 eV
Max COSX asymmetry :            0.00000073 Eh               0.00002 eV

Virial components:
Potential Energy   :         -392.93262515 Eh          -10692.24031 eV
Kinetic Energy     :          195.58353649 Eh            5322.09860 eV
Virial Ratio       :            2.00902710


DFT components:
N(Alpha)           :       21.000001035192 electrons
N(Beta)            :       21.000001035192 electrons
N(Total)           :       42.000002070385 electrons
E(X)               :      -16.781276131800 Eh       
E(C)               :       -1.760007540827 Eh       
E(XC)              :      -18.541283672627 Eh       
DFET-embed. en.    :        0.000000000000 Eh       

---------------
SCF CONVERGENCE
---------------

  Last Energy change         ...   -7.4047e-10  Tolerance :   1.0000e-08
  Last MAX-Density change    ...    8.4546e-16  Tolerance :   1.0000e-07
  Last RMS-Density change    ...    4.0194e-17  Tolerance :   5.0000e-09
  Last Orbital Gradient      ...    9.7488e-07  Tolerance :   1.0000e-05
  Last Orbital Rotation      ...    2.7201e-06  Tolerance :   1.0000e-05

             **** THE GBW FILE WAS UPDATED (pbeh-3c.gbw) ****
             **** DENSITY pbeh-3c.scfp WAS UPDATED ****
             **** ENERGY FILE WAS UPDATED (pbeh-3c.en.tmp) ****
             **** THE GBW FILE WAS UPDATED (pbeh-3c.gbw) ****
             **** DENSITY pbeh-3c.scfp WAS UPDATED ****
----------------
ORBITAL ENERGIES
----------------

  NO   OCC          E(Eh)            E(eV) 
   0   2.0000     -10.429053      -283.7890 
   1   2.0000     -10.429025      -283.7882 
   2   2.0000     -10.426927      -283.7311 
   3   2.0000     -10.420882      -283.5666 
   4   2.0000     -10.420873      -283.5664 
   5   2.0000      -0.889464       -24.2036 
   6   2.0000      -0.834777       -22.7154 
   7   2.0000      -0.754033       -20.5183 
   8   2.0000      -0.670630       -18.2488 
   9   2.0000      -0.642931       -17.4950 
  10   2.0000      -0.533110       -14.5067 
  11   2.0000      -0.492846       -13.4110 
  12   2.0000      -0.486588       -13.2407 
  13   2.0000      -0.456751       -12.4288 
  14   2.0000      -0.446457       -12.1487 
  15   2.0000      -0.427743       -11.6395 
  16   2.0000      -0.401858       -10.9351 
  17   2.0000      -0.382164       -10.3992 
  18   2.0000      -0.371633       -10.1127 
  19   2.0000      -0.365364        -9.9421 
  20   2.0000      -0.362768        -9.8714 
  21   0.0000       0.137631         3.7451 
  22   0.0000       0.154143         4.1944 
  23   0.0000       0.185994         5.0612 
  24   0.0000       0.186037         5.0623 
  25   0.0000       0.200354         5.4519 
  26   0.0000       0.211017         5.7421 
  27   0.0000       0.219747         5.9796 
  28   0.0000       0.225908         6.1473 
  29   0.0000       0.236857         6.4452 
  30   0.0000       0.238037         6.4773 
  31   0.0000       0.247524         6.7355 
  32   0.0000       0.247612         6.7379 
  33   0.0000       0.249447         6.7878 
  34   0.0000       0.283354         7.7104 
  35   0.0000       0.295296         8.0354 
  36   0.0000       0.305581         8.3153 
  37   0.0000       0.476945        12.9783 
  38   0.0000       0.492515        13.4020 
  39   0.0000       0.516804        14.0629 
  40   0.0000       0.535002        14.5581 
  41   0.0000       0.549543        14.9538 
  42   0.0000       0.575965        15.6728 
  43   0.0000       0.579314        15.7639 
  44   0.0000       0.641299        17.4506 
  45   0.0000       0.663456        18.0536 
  46   0.0000       0.672625        18.3030 
  47   0.0000       0.707989        19.2654 
  48   0.0000       0.724885        19.7251 
  49   0.0000       0.778654        21.1883 
  50   0.0000       0.834545        22.7091 
  51   0.0000       0.898539        24.4505 
  52   0.0000       0.959712        26.1151 
  53   0.0000       0.977584        26.6014 
  54   0.0000       1.028454        27.9857 
  55   0.0000       1.029522        28.0147 
  56   0.0000       1.038153        28.2496 
  57   0.0000       1.039036        28.2736 
  58   0.0000       1.064532        28.9674 
  59   0.0000       1.068018        29.0623 
  60   0.0000       1.068500        29.0754 
  61   0.0000       1.069886        29.1131 
  62   0.0000       1.088922        29.6311 
  63   0.0000       1.101065        29.9615 
  64   0.0000       1.109203        30.1829 
  65   0.0000       1.334771        36.3210 
  66   0.0000       1.399124        38.0721 
  67   0.0000       1.457426        39.6586 
  68   0.0000       1.466348        39.9013 
  69   0.0000       1.515434        41.2370 
  70   0.0000       1.627570        44.2884 
  71   0.0000       1.653304        44.9887 
  72   0.0000       1.800707        48.9997 
  73   0.0000       1.826868        49.7116 
  74   0.0000       1.946509        52.9672 
  75   0.0000       1.959289        53.3150 
  76   0.0000       1.977937        53.8224 
  77   0.0000       2.024874        55.0996 
  78   0.0000       2.039099        55.4867 
  79   0.0000       2.056545        55.9614 
  80   0.0000       2.058068        56.0029 
  81   0.0000       2.149880        58.5012 
  82   0.0000       2.270171        61.7745 
  83   0.0000       2.295149        62.4542 
  84   0.0000       2.358429        64.1761 
  85   0.0000       2.379002        64.7359 
  86   0.0000       2.404954        65.4421 
  87   0.0000       2.488413        67.7132 
  88   0.0000       2.492108        67.8137 
  89   0.0000       2.519488        68.5588 
  90   0.0000       2.598084        70.6975 
  91   0.0000       2.621249        71.3278 
  92   0.0000       2.796123        76.0864 
  93   0.0000       2.820746        76.7564 
  94   0.0000      13.550410       368.7254 
  95   0.0000      13.747653       374.0927 
  96   0.0000      13.895039       378.1032 
  97   0.0000      13.982031       380.4704 
  98   0.0000      14.068260       382.8168 

                    ********************************
                    * MULLIKEN POPULATION ANALYSIS *
                    ********************************

-----------------------
MULLIKEN ATOMIC CHARGES
-----------------------
   0 C :   -0.638139
   1 C :   -0.409062
   2 C :   -0.390904
   3 C :   -0.409062
   4 C :   -0.638138
   5 H :    0.217840
   6 H :    0.208807
   7 H :    0.208807
   8 H :    0.204054
   9 H :    0.204054
  10 H :    0.199090
  11 H :    0.199090
  12 H :    0.204054
  13 H :    0.204054
  14 H :    0.208807
  15 H :    0.217839
  16 H :    0.208807
Sum of atomic charges:   -0.0000000

--------------------------------
MULLIKEN REDUCED ORBITAL CHARGES
--------------------------------
  0 C s       :     3.377623  s :     3.377623
      pz      :     1.078920  p :     3.223551
      px      :     1.123561
      py      :     1.021069
      dz2     :     0.001452  d :     0.036966
      dxz     :     0.012796
      dyz     :     0.009974
      dx2y2   :     0.011029
      dxy     :     0.001715
  1 C s       :     3.321807  s :     3.321807
      pz      :     1.022691  p :     3.043536
      px      :     1.113575
      py      :     0.907270
      dz2     :     0.002861  d :     0.043718
      dxz     :     0.015325
      dyz     :     0.009835
      dx2y2   :     0.012294
      dxy     :     0.003404
  2 C s       :     3.318436  s :     3.318436
      pz      :     1.019267  p :     3.028925
      px      :     1.105968
      py      :     0.903689
      dz2     :     0.002779  d :     0.043544
      dxz     :     0.015461
      dyz     :     0.009782
      dx2y2   :     0.012144
      dxy     :     0.003378
  3 C s       :     3.321807  s :     3.321807
      pz      :     1.022690  p :     3.043536
      px      :     1.113575
      py      :     0.907270
      dz2     :     0.002861  d :     0.043718
      dxz     :     0.015325
      dyz     :     0.009835
      dx2y2   :     0.012294
      dxy     :     0.003404
  4 C s       :     3.377622  s :     3.377622
      pz      :     1.078920  p :     3.223550
      px      :     1.123561
      py      :     1.021069
      dz2     :     0.001452  d :     0.036966
      dxz     :     0.012796
      dyz     :     0.009974
      dx2y2   :     0.011029
      dxy     :     0.001715
  5 H s       :     0.782160  s :     0.782160
  6 H s       :     0.791193  s :     0.791193
  7 H s       :     0.791193  s :     0.791193
  8 H s       :     0.795946  s :     0.795946
  9 H s       :     0.795946  s :     0.795946
 10 H s       :     0.800910  s :     0.800910
 11 H s       :     0.800910  s :     0.800910
 12 H s       :     0.795946  s :     0.795946
 13 H s       :     0.795946  s :     0.795946
 14 H s       :     0.791193  s :     0.791193
 15 H s       :     0.782161  s :     0.782161
 16 H s       :     0.791193  s :     0.791193


                     *******************************
                     * LOEWDIN POPULATION ANALYSIS *
                     *******************************

----------------------
LOEWDIN ATOMIC CHARGES
----------------------
   0 C :   -0.362367
   1 C :   -0.245864
   2 C :   -0.241586
   3 C :   -0.245864
   4 C :   -0.362367
   5 H :    0.126058
   6 H :    0.123192
   7 H :    0.123192
   8 H :    0.119229
   9 H :    0.119229
  10 H :    0.118125
  11 H :    0.118125
  12 H :    0.119229
  13 H :    0.119229
  14 H :    0.123192
  15 H :    0.126058
  16 H :    0.123192

-------------------------------
LOEWDIN REDUCED ORBITAL CHARGES
-------------------------------
  0 C s       :     2.954280  s :     2.954280
      pz      :     1.117858  p :     3.339442
      px      :     1.132566
      py      :     1.089019
      dz2     :     0.003219  d :     0.068645
      dxz     :     0.021886
      dyz     :     0.019516
      dx2y2   :     0.020373
      dxy     :     0.003652
  1 C s       :     2.912356  s :     2.912356
      pz      :     1.088794  p :     3.244915
      px      :     1.110041
      py      :     1.046080
      dz2     :     0.006248  d :     0.088594
      dxz     :     0.026957
      dyz     :     0.023448
      dx2y2   :     0.024867
      dxy     :     0.007074
  2 C s       :     2.914969  s :     2.914969
      pz      :     1.088439  p :     3.238347
      px      :     1.108266
      py      :     1.041642
      dz2     :     0.006163  d :     0.088269
      dxz     :     0.027237
      dyz     :     0.023112
      dx2y2   :     0.024678
      dxy     :     0.007079
  3 C s       :     2.912356  s :     2.912356
      pz      :     1.088794  p :     3.244915
      px      :     1.110041
      py      :     1.046080
      dz2     :     0.006248  d :     0.088594
      dxz     :     0.026957
      dyz     :     0.023448
      dx2y2   :     0.024867
      dxy     :     0.007074
  4 C s       :     2.954280  s :     2.954280
      pz      :     1.117858  p :     3.339442
      px      :     1.132566
      py      :     1.089019
      dz2     :     0.003219  d :     0.068645
      dxz     :     0.021886
      dyz     :     0.019516
      dx2y2   :     0.020373
      dxy     :     0.003652
  5 H s       :     0.873942  s :     0.873942
  6 H s       :     0.876808  s :     0.876808
  7 H s       :     0.876808  s :     0.876808
  8 H s       :     0.880771  s :     0.880771
  9 H s       :     0.880771  s :     0.880771
 10 H s       :     0.881875  s :     0.881875
 11 H s       :     0.881875  s :     0.881875
 12 H s       :     0.880771  s :     0.880771
 13 H s       :     0.880771  s :     0.880771
 14 H s       :     0.876808  s :     0.876808
 15 H s       :     0.873942  s :     0.873942
 16 H s       :     0.876808  s :     0.876808


                      *****************************
                      * MAYER POPULATION ANALYSIS *
                      *****************************

  NA   - Mulliken gross atomic population
  ZA   - Total nuclear charge
  QA   - Mulliken gross atomic charge
  VA   - Mayer's total valence
  BVA  - Mayer's bonded valence
  FA   - Mayer's free valence

  ATOM       NA         ZA         QA         VA         BVA        FA
  0 C      6.6381     6.0000    -0.6381     3.7454     3.7454    -0.0000
  1 C      6.4091     6.0000    -0.4091     3.7606     3.7606    -0.0000
  2 C      6.3909     6.0000    -0.3909     3.7303     3.7303    -0.0000
  3 C      6.4091     6.0000    -0.4091     3.7606     3.7606    -0.0000
  4 C      6.6381     6.0000    -0.6381     3.7454     3.7454    -0.0000
  5 H      0.7822     1.0000     0.2178     0.9137     0.9137    -0.0000
  6 H      0.7912     1.0000     0.2088     0.9148     0.9148    -0.0000
  7 H      0.7912     1.0000     0.2088     0.9148     0.9148    -0.0000
  8 H      0.7959     1.0000     0.2041     0.9089     0.9089    -0.0000
  9 H      0.7959     1.0000     0.2041     0.9089     0.9089    -0.0000
 10 H      0.8009     1.0000     0.1991     0.9116     0.9116    -0.0000
 11 H      0.8009     1.0000     0.1991     0.9116     0.9116    -0.0000
 12 H      0.7959     1.0000     0.2041     0.9089     0.9089    -0.0000
 13 H      0.7959     1.0000     0.2041     0.9089     0.9089    -0.0000
 14 H      0.7912     1.0000     0.2088     0.9148     0.9148    -0.0000
 15 H      0.7822     1.0000     0.2178     0.9137     0.9137     0.0000
 16 H      0.7912     1.0000     0.2088     0.9148     0.9148    -0.0000

  Mayer bond orders larger than 0.100000
B(  0-C ,  1-C ) :   0.9969 B(  0-C ,  5-H ) :   0.9320 B(  0-C ,  6-H ) :   0.9295 
B(  0-C ,  7-H ) :   0.9295 B(  1-C ,  2-C ) :   0.9906 B(  1-C ,  8-H ) :   0.9204 
B(  1-C ,  9-H ) :   0.9204 B(  2-C ,  3-C ) :   0.9906 B(  2-C , 10-H ) :   0.9185 
B(  2-C , 11-H ) :   0.9185 B(  3-C ,  4-C ) :   0.9969 B(  3-C , 12-H ) :   0.9204 
B(  3-C , 13-H ) :   0.9204 B(  4-C , 14-H ) :   0.9295 B(  4-C , 15-H ) :   0.9320 
B(  4-C , 16-H ) :   0.9295 

-------
TIMINGS
-------

Total SCF time: 0 days 0 hours 1 min 7 sec 

Total time                  ....      67.072 sec
Sum of individual times     ....      61.855 sec  ( 92.2%)

Fock matrix formation       ....      49.510 sec  ( 73.8%)
  Split-RI-J                ....       6.554 sec  ( 13.2% of F)
  Chain of spheres X        ....      15.937 sec  ( 32.2% of F)
  XC integration            ....      15.006 sec  ( 30.3% of F)
    Basis function eval.    ....       2.194 sec  ( 14.6% of XC)
    Density eval.           ....       1.311 sec  (  8.7% of XC)
    XC-Functional eval.     ....       1.256 sec  (  8.4% of XC)
    XC-Potential eval.      ....       0.647 sec  (  4.3% of XC)
Diagonalization             ....       0.869 sec  (  1.3%)
Density matrix formation    ....       0.026 sec  (  0.0%)
Population analysis         ....       0.984 sec  (  1.5%)
Initial guess               ....       0.160 sec  (  0.2%)
Orbital Transformation      ....       0.000 sec  (  0.0%)
Orbital Orthonormalization  ....       0.000 sec  (  0.0%)
DIIS solution               ....       1.243 sec  (  1.9%)
SOSCF solution              ....       0.409 sec  (  0.6%)
Grid generation             ....       8.654 sec  ( 12.9%)

Maximum memory used throughout the entire SCF-calculation: 52.4 MB


-------------------------------------------------------------------------------
                          DFT DISPERSION CORRECTION                            
                                                                               
                              DFTD3 V3.1  Rev 1                                
                          USING Becke-Johnson damping                          
-------------------------------------------------------------------------------
The PBEh-3c composite method is recognized
Using three-body term ABC
Active option DFTDOPT                   ...         4   

molecular C6(AA) [au] = 1798.235053 


            DFT-D V3
 parameters
 s6 scaling factor         :     1.0000 
 a1 scaling factor         :     0.4860 
 s8 scaling factor         :     0.0000 
 a2 scaling factor         :     4.5000 
 Damping factor alpha9(ATM):    16.0000 
 ad hoc parameters k1-k3   :    16.0000     1.3333    -4.0000 

 Edisp/kcal,au: -4.247345319526  -0.006768574885 
 E6   /kcal   :  -4.255304360 
 E8   /kcal   :  -0.000000000 
 E6(ABC)      :   0.007959041 
 % E8         :   0.000000000 
 % E6(ABC)    :  -0.187388593 

-------------------------   ----------------
Dispersion correction           -0.006768575
-------------------------   ----------------

------------------   -----------------
gCP correction             0.022083205
------------------   -----------------

-------------------------   --------------------
FINAL SINGLE POINT ENERGY      -197.333774027051
-------------------------   --------------------


                            ***************************************
                            *     ORCA property calculations      *
                            ***************************************

                                    ---------------------
                                    Active property flags
                                    ---------------------
   (+) Dipole Moment


------------------------------------------------------------------------------
                       ORCA ELECTRIC PROPERTIES CALCULATION
------------------------------------------------------------------------------

Dipole Moment Calculation                       ... on
Quadrupole Moment Calculation                   ... off
Polarizability Calculation                      ... off
GBWName                                         ... pbeh-3c.gbw
Electron density                                ... pbeh-3c.scfp
The origin for moment calculation is the CENTER OF MASS  = ( 0.000000,  0.000000  0.058616)

-------------
DIPOLE MOMENT
-------------
                                X             Y             Z
Electronic contribution:      0.00000       0.00000       0.56033
Nuclear contribution   :      0.00000       0.00000      -0.54003
                        -----------------------------------------
Total Dipole Moment    :      0.00000       0.00000       0.02030
                        -----------------------------------------
Magnitude (a.u.)       :      0.02030
Magnitude (Debye)      :      0.05161



--------------------
Rotational spectrum 
--------------------
 
Rotational constants in cm-1:     0.571051     0.064267     0.061017 
Rotational constants in MHz : 17119.671504  1926.689099  1829.244294 

 Dipole components along the rotational axes: 
x,y,z [a.u.] :     0.000000     0.020304     0.000000 
x,y,z [Debye]:     0.000001     0.051608     0.000000 

 

Timings for individual modules:

Sum of individual times         ...       71.198 sec (=   1.187 min)
GTO integral calculation        ...        2.961 sec (=   0.049 min)   4.2 %
SCF iterations                  ...       68.238 sec (=   1.137 min)  95.8 %
                             ****ORCA TERMINATED NORMALLY****
TOTAL RUN TIME: 0 days 0 hours 1 minutes 13 seconds 305 msec
