
                                 *****************
                                 * O   R   C   A *
                                 *****************

                                            #,                                       
                                            ###                                      
                                            ####                                     
                                            #####                                    
                                            ######                                   
                                           ########,                                 
                                     ,,################,,,,,                         
                               ,,#################################,,                 
                          ,,##########################################,,             
                       ,#########################################, ''#####,          
                    ,#############################################,,   '####,        
                  ,##################################################,,,,####,       
                ,###########''''           ''''###############################       
              ,#####''   ,,,,##########,,,,          '''####'''          '####       
            ,##' ,,,,###########################,,,                        '##       
           ' ,,###''''                  '''############,,,                           
         ,,##''                                '''############,,,,        ,,,,,,###''
      ,#''                                            '''#######################'''  
     '                                                          ''''####''''         
             ,#######,   #######,   ,#######,      ##                                
            ,#'     '#,  ##    ##  ,#'     '#,    #''#        ######   ,####,        
            ##       ##  ##   ,#'  ##            #'  '#       #        #'  '#        
            ##       ##  #######   ##           ,######,      #####,   #    #        
            '#,     ,#'  ##    ##  '#,     ,#' ,#      #,         ##   #,  ,#        
             '#######'   ##     ##  '#######'  #'      '#     #####' # '####'        



                  #######################################################
                  #                        -***-                        #
                  #          Department of theory and spectroscopy      #
                  #    Directorship and core code : Frank Neese         #
                  #        Max Planck Institute fuer Kohlenforschung    #
                  #                Kaiser Wilhelm Platz 1               #
                  #                 D-45470 Muelheim/Ruhr               #
                  #                      Germany                        #
                  #                                                     #
                  #                  All rights reserved                #
                  #                        -***-                        #
                  #######################################################


                         Program Version 5.0.3 -  RELEASE  -


 With contributions from (in alphabetic order):
   Daniel Aravena         : Magnetic Suceptibility
   Michael Atanasov       : Ab Initio Ligand Field Theory (pilot matlab implementation)
   Alexander A. Auer      : GIAO ZORA, VPT2 properties, NMR spectrum
   Ute Becker             : Parallelization
   Giovanni Bistoni       : ED, misc. LED, open-shell LED, HFLD
   Martin Brehm           : Molecular dynamics
   Dmytro Bykov           : SCF Hessian
   Vijay G. Chilkuri      : MRCI spin determinant printing, contributions to CSF-ICE
   Dipayan Datta          : RHF DLPNO-CCSD density
   Achintya Kumar Dutta   : EOM-CC, STEOM-CC
   Dmitry Ganyushin       : Spin-Orbit,Spin-Spin,Magnetic field MRCI
   Miquel Garcia          : C-PCM and meta-GGA Hessian, CC/C-PCM, Gaussian charge scheme
   Yang Guo               : DLPNO-NEVPT2, F12-NEVPT2, CIM, IAO-localization
   Andreas Hansen         : Spin unrestricted coupled pair/coupled cluster methods
   Benjamin Helmich-Paris : MC-RPA, TRAH-SCF, COSX integrals
   Lee Huntington         : MR-EOM, pCC
   Robert Izsak           : Overlap fitted RIJCOSX, COSX-SCS-MP3, EOM
   Marcus Kettner         : VPT2
   Christian Kollmar      : KDIIS, OOCD, Brueckner-CCSD(T), CCSD density, CASPT2, CASPT2-K
   Simone Kossmann        : Meta GGA functionals, TD-DFT gradient, OOMP2, MP2 Hessian
   Martin Krupicka        : Initial AUTO-CI
   Lucas Lang             : DCDCAS
   Marvin Lechner         : AUTO-CI (C++ implementation), FIC-MRCC
   Dagmar Lenk            : GEPOL surface, SMD
   Dimitrios Liakos       : Extrapolation schemes; Compound Job, initial MDCI parallelization
   Dimitrios Manganas     : Further ROCIS development; embedding schemes
   Dimitrios Pantazis     : SARC Basis sets
   Anastasios Papadopoulos: AUTO-CI, single reference methods and gradients
   Taras Petrenko         : DFT Hessian,TD-DFT gradient, ASA, ECA, R-Raman, ABS, FL, XAS/XES, NRVS
   Peter Pinski           : DLPNO-MP2, DLPNO-MP2 Gradient
   Christoph Reimann      : Effective Core Potentials
   Marius Retegan         : Local ZFS, SOC
   Christoph Riplinger    : Optimizer, TS searches, QM/MM, DLPNO-CCSD(T), (RO)-DLPNO pert. Triples
   Tobias Risthaus        : Range-separated hybrids, TD-DFT gradient, RPA, STAB
   Michael Roemelt        : Original ROCIS implementation
   Masaaki Saitow         : Open-shell DLPNO-CCSD energy and density
   Barbara Sandhoefer     : DKH picture change effects
   Avijit Sen             : IP-ROCIS
   Kantharuban Sivalingam : CASSCF convergence, NEVPT2, FIC-MRCI
   Bernardo de Souza      : ESD, SOC TD-DFT
   Georgi Stoychev        : AutoAux, RI-MP2 NMR, DLPNO-MP2 response
   Willem Van den Heuvel  : Paramagnetic NMR
   Boris Wezisla          : Elementary symmetry handling
   Frank Wennmohs         : Technical directorship


 We gratefully acknowledge several colleagues who have allowed us to
 interface, adapt or use parts of their codes:
   Stefan Grimme, W. Hujo, H. Kruse, P. Pracht,  : VdW corrections, initial TS optimization,
                  C. Bannwarth, S. Ehlert          DFT functionals, gCP, sTDA/sTD-DF
   Ed Valeev, F. Pavosevic, A. Kumar             : LibInt (2-el integral package), F12 methods
   Garnet Chan, S. Sharma, J. Yang, R. Olivares  : DMRG
   Ulf Ekstrom                                   : XCFun DFT Library
   Mihaly Kallay                                 : mrcc  (arbitrary order and MRCC methods)
   Jiri Pittner, Ondrej Demel                    : Mk-CCSD
   Frank Weinhold                                : gennbo (NPA and NBO analysis)
   Christopher J. Cramer and Donald G. Truhlar   : smd solvation model
   Lars Goerigk                                  : TD-DFT with DH, B97 family of functionals
   V. Asgeirsson, H. Jonsson                     : NEB implementation
   FAccTs GmbH                                   : IRC, NEB, NEB-TS, DLPNO-Multilevel, CI-OPT
                                                   MM, QMMM, 2- and 3-layer-ONIOM, Crystal-QMMM,
                                                   LR-CPCM, SF, NACMEs, symmetry and pop. for TD-DFT,
                                                   nearIR, NL-DFT gradient (VV10), updates on ESD,
                                                   ML-optimized integration grids
   S Lehtola, MJT Oliveira, MAL Marques          : LibXC Library
   Liviu Ungur et al                             : ANISO software


 Your calculation uses the libint2 library for the computation of 2-el integrals
 For citations please refer to: http://libint.valeyev.net

 Your ORCA version has been built with support for libXC version: 5.1.0
 For citations please refer to: https://tddft.org/programs/libxc/

 This ORCA versions uses:
   CBLAS   interface :  Fast vector & matrix operations
   LAPACKE interface :  Fast linear algebra routines
   SCALAPACK package :  Parallel linear algebra routines
   Shared memory     :  Shared parallel matrices
   BLAS/LAPACK       :  OpenBLAS 0.3.15  USE64BITINT DYNAMIC_ARCH NO_AFFINITY Haswell SINGLE_THREADED
        Core in use  :  Haswell
   Copyright (c) 2011-2014, The OpenBLAS Project




***************************************
The coordinates will be read from file: 20A.xyz
***************************************


Your calculation utilizes the geometrical counterpoise correction gCP
Please cite in your paper:
H.Kruse, S. Grimme J.Chem.Phys., 136, (2012), 154101 
   

Your calculation utilizes the atom-pairwise dispersion correction
with the Becke-Johnson damping scheme (D3BJ)
Cite in your paper:
S.Grimme, S.Ehrlich, L.Goerigk, J Comput Chem, (2011), 32, 1456–1465 
S.Grimme, J.Antony, S.Ehrlich and H.Krieg, J.Chem.Phys., 132, (2010), 154104 
   

Your calculation employs the composite approach PBEh-3c.
Please cite in your paper:
S. Grimme, J. G. Brandenburg, C. Bannwarth, A. Hansen J.Chem.Phys., 143, (2015), 054107 
   

================================================================================

----- Orbital basis set information -----
Your calculation utilizes the basis: def2-mSVP

----- AuxJ basis set information -----
Your calculation utilizes the auxiliary basis: def2/J
   F. Weigend, Phys. Chem. Chem. Phys. 8, 1057 (2006).

================================================================================
                                        WARNINGS
                       Please study these warnings very carefully!
================================================================================


INFO   : the flag for use of the SHARK integral package has been found!

================================================================================
                                       INPUT FILE
================================================================================
NAME = pbeh-3c.inp
|  1> ! PBEh-3c def2/J TightSCF DefGrid3
|  2> 
|  3> %maxcore 60000
|  4> 
|  5> %pal
|  6> nprocs 4
|  7> end
|  8> 
|  9> *xyzfile 0 1 20A.xyz
| 10> 
| 11>                          ****END OF INPUT****
================================================================================

                       ****************************
                       * Single Point Calculation *
                       ****************************

---------------------------------
CARTESIAN COORDINATES (ANGSTROEM)
---------------------------------
  C      0.554449    0.153696    0.038659
  O      1.257997    1.127014    0.278412
  O      1.026855   -1.048526   -0.249612
  H      2.020594   -1.015722   -0.234989
  C     -0.942270    0.199105    0.042856
  H     -1.279840    1.204020    0.264915
  H     -1.316731   -0.121054   -0.926396
  H     -1.321054   -0.498534    0.786156

----------------------------
CARTESIAN COORDINATES (A.U.)
----------------------------
  NO LB      ZA    FRAG     MASS         X           Y           Z
   0 C     6.0000    0    12.011    1.047757    0.290444    0.073055
   1 O     8.0000    0    15.999    2.377270    2.129748    0.526122
   2 O     8.0000    0    15.999    1.940474   -1.981428   -0.471699
   3 H     1.0000    0     1.008    3.818369   -1.919436   -0.444065
   4 C     6.0000    0    12.011   -1.780631    0.376255    0.080987
   5 H     1.0000    0     1.008   -2.418547    2.275267    0.500617
   6 H     1.0000    0     1.008   -2.488261   -0.228759   -1.750636
   7 H     1.0000    0     1.008   -2.496430   -0.942092    1.485620

--------------------------------
INTERNAL COORDINATES (ANGSTROEM)
--------------------------------
 C      0   0   0     0.000000000000     0.00000000     0.00000000
 O      1   0   0     1.224666844461     0.00000000     0.00000000
 O      1   2   0     1.323482917656   124.02321867     0.00000000
 H      3   1   2     0.994387948671   108.87701794     0.05052326
 C      1   2   3     1.497413063204   123.33715384   179.91178106
 H      5   1   2     1.083104851930   109.89118741     1.12701368
 H      5   1   2     1.087278394789   109.43968890   122.51687765
 H      5   1   2     1.087507439670   109.30553245   239.98285916

---------------------------
INTERNAL COORDINATES (A.U.)
---------------------------
 C      0   0   0     0.000000000000     0.00000000     0.00000000
 O      1   0   0     2.314284941325     0.00000000     0.00000000
 O      1   2   0     2.501020257293   124.02321867     0.00000000
 H      3   1   2     1.879120893860   108.87701794     0.05052326
 C      1   2   3     2.829700598811   123.33715384   179.91178106
 H      5   1   2     2.046771544469   109.89118741     1.12701368
 H      5   1   2     2.054658397480   109.43968890   122.51687765
 H      5   1   2     2.055091229578   109.30553245   239.98285916

---------------------
BASIS SET INFORMATION
---------------------
There are 3 groups of distinct atoms

 Group   1 Type C   : 8s4p1d contracted to 4s2p1d pattern {5111/31/1}
 Group   2 Type O   : 8s4p1d contracted to 4s2p1d pattern {5111/31/1}
 Group   3 Type H   : 4s contracted to 2s pattern {31}

Atom   0C    basis set group =>   1
Atom   1O    basis set group =>   2
Atom   2O    basis set group =>   2
Atom   3H    basis set group =>   3
Atom   4C    basis set group =>   1
Atom   5H    basis set group =>   3
Atom   6H    basis set group =>   3
Atom   7H    basis set group =>   3
---------------------------------
AUXILIARY/J BASIS SET INFORMATION
---------------------------------
There are 3 groups of distinct atoms

 Group   1 Type C   : 12s5p4d2f1g contracted to 6s4p3d1f1g pattern {711111/2111/211/2/1}
 Group   2 Type O   : 12s5p4d2f1g contracted to 6s4p3d1f1g pattern {711111/2111/211/2/1}
 Group   3 Type H   : 5s2p1d contracted to 3s1p1d pattern {311/2/1}

Atom   0C    basis set group =>   1
Atom   1O    basis set group =>   2
Atom   2O    basis set group =>   2
Atom   3H    basis set group =>   3
Atom   4C    basis set group =>   1
Atom   5H    basis set group =>   3
Atom   6H    basis set group =>   3
Atom   7H    basis set group =>   3


           ************************************************************
           *        Program running with 4 parallel MPI-processes     *
           *              working on a common directory               *
           ************************************************************
------------------------------------------------------------------------------
                           ORCA GTO INTEGRAL CALCULATION
                           -- RI-GTO INTEGRALS CHOSEN --
------------------------------------------------------------------------------
------------------------------------------------------------------------------
                   ___                                                        
                  /   \      - P O W E R E D   B Y -                         
                 /     \                                                     
                 |  |  |   _    _      __       _____    __    __             
                 |  |  |  | |  | |    /  \     |  _  \  |  |  /  |          
                  \  \/   | |  | |   /    \    | | | |  |  | /  /          
                 / \  \   | |__| |  /  /\  \   | |_| |  |  |/  /          
                |  |  |   |  __  | /  /__\  \  |    /   |      \           
                |  |  |   | |  | | |   __   |  |    \   |  |\   \          
                \     /   | |  | | |  |  |  |  | |\  \  |  | \   \       
                 \___/    |_|  |_| |__|  |__|  |_| \__\ |__|  \__/        
                                                                              
                      - O R C A' S   B I G   F R I E N D -                    
                                      &                                       
                       - I N T E G R A L  F E E D E R -                       
                                                                              
 v1 FN, 2020, v2 2021                                                         
------------------------------------------------------------------------------


Reading SHARK input file pbeh-3c.SHARKINP.tmp ... ok
----------------------
SHARK INTEGRAL PACKAGE
----------------------

Number of atoms                             ...      8
Number of basis functions                   ...     68
Number of shells                            ...     36
Maximum angular momentum                    ...      2
Integral batch strategy                     ... SHARK/LIBINT Hybrid
RI-J (if used) integral strategy            ... SPLIT-RIJ (Revised 2003 algorithm where possible)
Printlevel                                  ...      1
Contraction scheme used                     ... SEGMENTED contraction
Coulomb Range Separation                    ... NOT USED
Exchange Range Separation                   ... NOT USED
Finite Nucleus Model                        ... NOT USED
Auxiliary Coulomb fitting basis             ... AVAILABLE
   # of basis functions in Aux-J            ...    240
   # of shells in Aux-J                     ...     80
   Maximum angular momentum in Aux-J        ...      4
Auxiliary J/K fitting basis                 ... NOT available
Auxiliary Correlation fitting basis         ... NOT available
Auxiliary 'external' fitting basis          ... NOT available
Integral threshold                          ...     2.500000e-11
Primitive cut-off                           ...     2.500000e-12
Primitive pair pre-selection threshold      ...     2.500000e-12

Calculating pre-screening integrals         ... done (  0.1 sec) Dimension = 36
Organizing shell pair data                  ... done (  0.3 sec)
Shell pair information
Total number of shell pairs                 ...       666
Shell pairs after pre-screening             ...       651
Total number of primitive shell pairs       ...      2410
Primitive shell pairs kept                  ...      1863
          la=0 lb=0:    285 shell pairs
          la=1 lb=0:    192 shell pairs
          la=1 lb=1:     36 shell pairs
          la=2 lb=0:     96 shell pairs
          la=2 lb=1:     32 shell pairs
          la=2 lb=2:     10 shell pairs

Calculating one electron integrals          ... done (  0.0 sec)
Calculating RI/J V-Matrix + Cholesky decomp.... done (  0.7 sec)
Calculating Nuclear repulsion               ... done (  0.2 sec) ENN=    121.353551077162 Eh

SHARK setup successfully completed in   2.4 seconds

Maximum memory used throughout the entire GTOINT-calculation: 9.4 MB


           ************************************************************
           *        Program running with 4 parallel MPI-processes     *
           *              working on a common directory               *
           ************************************************************
-------------------------------------------------------------------------------
                                 ORCA SCF
-------------------------------------------------------------------------------

------------
SCF SETTINGS
------------
Hamiltonian:
 Density Functional     Method          .... DFT(GTOs)
 Exchange Functional    Exchange        .... PBE
   PBE kappa parameter   XKappa         ....  1.024500
   PBE mue parameter    XMuePBE         ....  0.123457
 Correlation Functional Correlation     .... PBE
   PBE beta parameter  CBetaPBE         ....  0.030000
 LDA part of GGA corr.  LDAOpt          .... PW91-LDA
 Gradients option       PostSCFGGA      .... off
 Hybrid DFT is turned on
   Fraction HF Exchange ScalHFX         ....  0.420000
   Scaling of DF-GGA-X  ScalDFX         ....  0.580000
   Scaling of DF-GGA-C  ScalDFC         ....  1.000000
   Scaling of DF-LDA-C  ScalLDAC        ....  1.000000
   Perturbative correction              ....  0.000000
   Density functional embedding theory  .... OFF
 RI-approximation to the Coulomb term is turned on
   Number of AuxJ basis functions       .... 240
   RIJ-ON(X) (HFX calculated with O(N)) .... on
   Number of AuxJ basis functions       .... 240
   RIJ-COSX (HFX calculated with COS-X)).... on


General Settings:
 Integral files         IntName         .... pbeh-3c
 Hartree-Fock type      HFTyp           .... RHF
 Total Charge           Charge          ....    0
 Multiplicity           Mult            ....    1
 Number of Electrons    NEL             ....   32
 Basis Dimension        Dim             ....   68
 Nuclear Repulsion      ENuc            ....    121.3535510772 Eh

Convergence Acceleration:
 DIIS                   CNVDIIS         .... on
   Start iteration      DIISMaxIt       ....    12
   Startup error        DIISStart       ....  0.200000
   # of expansion vecs  DIISMaxEq       ....     5
   Bias factor          DIISBfac        ....   1.050
   Max. coefficient     DIISMaxC        ....  10.000
 Trust-Rad. Augm. Hess. CNVTRAH         .... auto
   Auto Start mean grad. ratio tolernc. ....  1.125000
   Auto Start start iteration           ....    20
   Auto Start num. interpolation iter.  ....    10
   Max. Number of Micro iterations      ....    16
   Max. Number of Macro iterations      .... Maxiter - #DIIS iter
   Number of Davidson start vectors     ....     2
   Converg. threshold I  (grad. norm)   ....   1.000e-05
   Converg. threshold II (energy diff.) ....   1.000e-08
   Grad. Scal. Fac. for Micro threshold ....   0.100
   Minimum threshold for Micro iter.    ....   0.010
   NR start threshold (gradient norm)   ....   0.001
   Initial trust radius                 ....   0.400
   Minimum AH scaling param. (alpha)    ....   1.000
   Maximum AH scaling param. (alpha)    .... 1000.000
   Orbital update algorithm             .... Taylor
   White noise on init. David. guess    .... on
   Maximum white noise                  ....   0.010
   Quad. conv. algorithm                .... NR
   COSX micro iterations for RIJONX calc.... off
 SOSCF                  CNVSOSCF        .... on
   Start iteration      SOSCFMaxIt      ....   150
   Startup grad/error   SOSCFStart      ....  0.003300
 Level Shifting         CNVShift        .... on
   Level shift para.    LevelShift      ....    0.2500
   Turn off err/grad.   ShiftErr        ....    0.0010
 Zerner damping         CNVZerner       .... off
 Static damping         CNVDamp         .... on
   Fraction old density DampFac         ....    0.7000
   Max. Damping (<1)    DampMax         ....    0.9800
   Min. Damping (>=0)   DampMin         ....    0.0000
   Turn off err/grad.   DampErr         ....    0.1000
 Fernandez-Rico         CNVRico         .... off

SCF Procedure:
 Maximum # iterations   MaxIter         ....   125
 SCF integral mode      SCFMode         .... Direct
   Integral package                     .... SHARK and LIBINT hybrid scheme
 Reset frequency        DirectResetFreq ....    20
 Integral Threshold     Thresh          ....  2.500e-11 Eh
 Primitive CutOff       TCut            ....  2.500e-12 Eh

Convergence Tolerance:
 Convergence Check Mode ConvCheckMode   .... Total+1el-Energy
 Convergence forced     ConvForced      .... 0
 Energy Change          TolE            ....  1.000e-08 Eh
 1-El. energy change                    ....  1.000e-05 Eh
 Orbital Gradient       TolG            ....  1.000e-05
 Orbital Rotation angle TolX            ....  1.000e-05
 DIIS Error             TolErr          ....  5.000e-07


Diagonalization of the overlap matrix:
Smallest eigenvalue                        ... 7.119e-03
Time for diagonalization                   ...    0.006 sec
Threshold for overlap eigenvalues          ... 1.000e-08
Number of eigenvalues below threshold      ... 0
Time for construction of square roots      ...    0.274 sec
Total time needed                          ...    0.390 sec

--------------------------------
INITIAL GUESS: MINIMAL BASIS EHT
--------------------------------
The minimal basis has 24 functions
EHT matrix was diagonalized
Basis set overlap was calculated now projecting the orbitals
Using GuessMode=FMatrix for the initial guess
C*T matrix was formed
Effective Fockian was calculated
Effective Fockian was diagonalized
Initial density was built
                      ------------------
                      INITIAL GUESS DONE
                      ------------------
-------------------
DFT GRID GENERATION
-------------------

General Integration Accuracy     IntAcc      ... 4.959
Radial Grid Type                 RadialGrid  ... OptM3 with GC (2021)
Angular Grid (max. ang.)         AngularGrid ... 6 (Lebedev-590)
Angular grid pruning method      GridPruning ... 4 (adaptive)
Weight generation scheme         WeightScheme... Becke
Basis function cutoff            BFCut       ... 1.0000e-11
Integration weight cutoff        WCut        ... 1.0000e-14
Angular grids for H and He will be reduced by one unit
Partially contracted basis set               ... off
Rotationally invariant grid construction     ... off

Total number of grid points                  ...    93415
Total number of batches                      ...     1464
Average number of points per batch           ...       63
Average number of grid points per atom       ...    11677
Time for grid setup =    1.684 sec

--------------------
COSX GRID GENERATION
--------------------

GRIDX 1
-------
General Integration Accuracy     IntAcc      ... 4.020
Radial Grid Type                 RadialGrid  ... OptM3 with GC (2021)
Angular Grid (max. ang.)         AngularGrid ... 2 (Lebedev-110)
Angular grid pruning method      GridPruning ... 4 (adaptive)
Weight generation scheme         WeightScheme... Becke
Basis function cutoff            BFCut       ... 1.0000e-11
Integration weight cutoff        WCut        ... 1.0000e-14
Angular grids for H and He will be reduced by one unit
Partially contracted basis set               ... on
Rotationally invariant grid construction     ... off

Total number of grid points                  ...    10531
Total number of batches                      ...      168
Average number of points per batch           ...       62
Average number of grid points per atom       ...     1316
UseSFitting                                  ... on

GRIDX 2
-------
General Integration Accuracy     IntAcc      ... 4.338
Radial Grid Type                 RadialGrid  ... OptM3 with GC (2021)
Angular Grid (max. ang.)         AngularGrid ... 3 (Lebedev-194)
Angular grid pruning method      GridPruning ... 4 (adaptive)
Weight generation scheme         WeightScheme... Becke
Basis function cutoff            BFCut       ... 1.0000e-11
Integration weight cutoff        WCut        ... 1.0000e-14
Angular grids for H and He will be reduced by one unit
Partially contracted basis set               ... on
Rotationally invariant grid construction     ... off

Total number of grid points                  ...    23265
Total number of batches                      ...      368
Average number of points per batch           ...       63
Average number of grid points per atom       ...     2908
UseSFitting                                  ... on

GRIDX 3
-------
General Integration Accuracy     IntAcc      ... 4.871
Radial Grid Type                 RadialGrid  ... OptM3 with GC (2021)
Angular Grid (max. ang.)         AngularGrid ... 4 (Lebedev-302)
Angular grid pruning method      GridPruning ... 4 (adaptive)
Weight generation scheme         WeightScheme... Becke
Basis function cutoff            BFCut       ... 1.0000e-11
Integration weight cutoff        WCut        ... 1.0000e-14
Angular grids for H and He will be reduced by one unit
Partially contracted basis set               ... on
Rotationally invariant grid construction     ... off

Total number of grid points                  ...    44724
Total number of batches                      ...      702
Average number of points per batch           ...       63
Average number of grid points per atom       ...     5590
UseSFitting                                  ... on

Time for X-Grid setup             =    3.364 sec

--------------
SCF ITERATIONS
--------------
ITER       Energy         Delta-E        Max-DP      RMS-DP      [F,P]     Damp
               ***  Starting incremental Fock matrix formation  ***
  0   -227.7628886225   0.000000000000 0.19804518  0.01029414  0.5645247 0.7000
  1   -228.0965000451  -0.333611422629 0.11154868  0.00548859  0.2971643 0.7000
  2   -228.2497615549  -0.153261509791 0.04554420  0.00274873  0.2099177 0.7000
                               ***Turning on DIIS***
  3   -228.3554898605  -0.105728305538 0.02595541  0.00175269  0.1476406 0.7000
  4   -228.4318916760  -0.076401815534 0.02006955  0.00127932  0.1036279 0.7000
  5   -228.4858322630  -0.053940586994 0.04879325  0.00314747  0.0727465 0.0000
  6   -228.6134374644  -0.127605201355 0.00356086  0.00019493  0.0040596 0.0000
                      *** Initiating the SOSCF procedure ***
                           *** Shutting down DIIS ***
                      *** Re-Reading the Fockian *** 
                      *** Removing any level shift *** 
ITER      Energy       Delta-E        Grad      Rot      Max-DP    RMS-DP
  7   -228.61349639  -0.0000589259  0.000678  0.000678  0.001359  0.000085
               *** Restarting incremental Fock matrix formation ***
  8   -228.61351021  -0.0000138152  0.000573  0.001364  0.001460  0.000059
  9   -228.61351187  -0.0000016677  0.000418  0.000307  0.000727  0.000042
 10   -228.61351344  -0.0000015624  0.000091  0.000083  0.000268  0.000013
 11   -228.61351352  -0.0000000875  0.000029  0.000045  0.000073  0.000003
 12   -228.61351353  -0.0000000060  0.000021  0.000025  0.000037  0.000002
                  ***Gradient check signals convergence***
              ***Rediagonalizing the Fockian in SOSCF/NRSCF***

               *****************************************************
               *                     SUCCESS                       *
               *           SCF CONVERGED AFTER  13 CYCLES          *
               *****************************************************

Old exchange energy                            =    -11.859181671 Eh
New exchange energy                            =    -11.859184854 Eh
Exchange energy change after final integration =     -0.000003183 Eh
Total energy after final integration           =   -228.613516719 Eh
Final COS-X integration done in                =     1.055 sec

----------------
TOTAL SCF ENERGY
----------------

Total Energy       :         -228.61351672 Eh           -6220.89005 eV

Components:
Nuclear Repulsion  :          121.35355108 Eh            3302.19801 eV
Electronic Energy  :         -349.96706780 Eh           -9523.08806 eV
One Electron Energy:         -552.45720739 Eh          -15033.12488 eV
Two Electron Energy:          202.49013959 Eh            5510.03682 eV
Max COSX asymmetry :            0.00000168 Eh               0.00005 eV

Virial components:
Potential Energy   :         -455.63878397 Eh          -12398.56164 eV
Kinetic Energy     :          227.02526725 Eh            6177.67159 eV
Virial Ratio       :            2.00699591


DFT components:
N(Alpha)           :       16.000000095723 electrons
N(Beta)            :       16.000000095723 electrons
N(Total)           :       32.000000191445 electrons
E(X)               :      -15.792410785254 Eh       
E(C)               :       -1.416725473346 Eh       
E(XC)              :      -17.209136258599 Eh       
DFET-embed. en.    :        0.000000000000 Eh       

---------------
SCF CONVERGENCE
---------------

  Last Energy change         ...   -6.0283e-09  Tolerance :   1.0000e-08
  Last MAX-Density change    ...    1.5543e-15  Tolerance :   1.0000e-07
  Last RMS-Density change    ...    6.1129e-17  Tolerance :   5.0000e-09
  Last Orbital Gradient      ...    1.6277e-06  Tolerance :   1.0000e-05
  Last Orbital Rotation      ...    2.3172e-06  Tolerance :   1.0000e-05

             **** THE GBW FILE WAS UPDATED (pbeh-3c.gbw) ****
             **** DENSITY pbeh-3c.scfp WAS UPDATED ****
             **** ENERGY FILE WAS UPDATED (pbeh-3c.en.tmp) ****
             **** THE GBW FILE WAS UPDATED (pbeh-3c.gbw) ****
             **** DENSITY pbeh-3c.scfp WAS UPDATED ****
----------------
ORBITAL ENERGIES
----------------

  NO   OCC          E(Eh)            E(eV) 
   0   2.0000     -19.551973      -532.0362 
   1   2.0000     -19.478847      -530.0464 
   2   2.0000     -10.583612      -287.9947 
   3   2.0000     -10.447036      -284.2783 
   4   2.0000      -1.225109       -33.3369 
   5   2.0000      -1.116401       -30.3788 
   6   2.0000      -0.848646       -23.0928 
   7   2.0000      -0.693737       -18.8775 
   8   2.0000      -0.557819       -15.1790 
   9   2.0000      -0.549848       -14.9621 
  10   2.0000      -0.536361       -14.5951 
  11   2.0000      -0.471039       -12.8176 
  12   2.0000      -0.453406       -12.3378 
  13   2.0000      -0.450207       -12.2507 
  14   2.0000      -0.372519       -10.1367 
  15   2.0000      -0.330883        -9.0038 
  16   0.0000       0.047327         1.2878 
  17   0.0000       0.114118         3.1053 
  18   0.0000       0.167090         4.5467 
  19   0.0000       0.207505         5.6465 
  20   0.0000       0.220717         6.0060 
  21   0.0000       0.242774         6.6062 
  22   0.0000       0.324743         8.8367 
  23   0.0000       0.381705        10.3867 
  24   0.0000       0.505867        13.7653 
  25   0.0000       0.538963        14.6659 
  26   0.0000       0.574097        15.6220 
  27   0.0000       0.575033        15.6475 
  28   0.0000       0.591268        16.0892 
  29   0.0000       0.685867        18.6634 
  30   0.0000       0.794375        21.6160 
  31   0.0000       0.863338        23.4926 
  32   0.0000       0.956198        26.0195 
  33   0.0000       0.970284        26.4028 
  34   0.0000       1.010542        27.4983 
  35   0.0000       1.034429        28.1482 
  36   0.0000       1.045522        28.4501 
  37   0.0000       1.089532        29.6477 
  38   0.0000       1.152018        31.3480 
  39   0.0000       1.158682        31.5293 
  40   0.0000       1.197480        32.5851 
  41   0.0000       1.392837        37.9010 
  42   0.0000       1.423697        38.7408 
  43   0.0000       1.449641        39.4467 
  44   0.0000       1.715081        46.6697 
  45   0.0000       1.769758        48.1576 
  46   0.0000       1.776170        48.3320 
  47   0.0000       1.867231        50.8100 
  48   0.0000       1.869247        50.8648 
  49   0.0000       1.935753        52.6745 
  50   0.0000       1.965237        53.4768 
  51   0.0000       2.035577        55.3909 
  52   0.0000       2.076790        56.5123 
  53   0.0000       2.123990        57.7967 
  54   0.0000       2.264814        61.6287 
  55   0.0000       2.272396        61.8350 
  56   0.0000       2.356182        64.1150 
  57   0.0000       2.519460        68.5580 
  58   0.0000       2.534401        68.9646 
  59   0.0000       2.720827        74.0375 
  60   0.0000       2.774114        75.4875 
  61   0.0000       2.897185        78.8364 
  62   0.0000       2.993840        81.4665 
  63   0.0000       3.158732        85.9535 
  64   0.0000      13.650914       371.4603 
  65   0.0000      14.066671       382.7736 
  66   0.0000      25.536759       694.8905 
  67   0.0000      25.699802       699.3272 

                    ********************************
                    * MULLIKEN POPULATION ANALYSIS *
                    ********************************

-----------------------
MULLIKEN ATOMIC CHARGES
-----------------------
   0 C :    0.506675
   1 O :   -0.410793
   2 O :   -0.566167
   3 H :    0.445889
   4 C :   -0.738297
   5 H :    0.261671
   6 H :    0.250259
   7 H :    0.250764
Sum of atomic charges:   -0.0000000

--------------------------------
MULLIKEN REDUCED ORBITAL CHARGES
--------------------------------
  0 C s       :     2.960275  s :     2.960275
      pz      :     0.738634  p :     2.395559
      px      :     0.907521
      py      :     0.749404
      dz2     :     0.009650  d :     0.137491
      dxz     :     0.011707
      dyz     :     0.026696
      dx2y2   :     0.051908
      dxy     :     0.037530
  1 O s       :     3.765343  s :     3.765343
      pz      :     1.433263  p :     4.615510
      px      :     1.662186
      py      :     1.520061
      dz2     :     0.003406  d :     0.029940
      dxz     :     0.003956
      dyz     :     0.007394
      dx2y2   :     0.006980
      dxy     :     0.008203
  2 O s       :     3.795635  s :     3.795635
      pz      :     1.790282  p :     4.740298
      px      :     1.405356
      py      :     1.544661
      dz2     :     0.005037  d :     0.030234
      dxz     :     0.000405
      dyz     :     0.005962
      dx2y2   :     0.014899
      dxy     :     0.003932
  3 H s       :     0.554111  s :     0.554111
  4 C s       :     3.407316  s :     3.407316
      pz      :     1.160426  p :     3.297143
      px      :     0.952431
      py      :     1.184286
      dz2     :     0.007320  d :     0.033838
      dxz     :     0.004393
      dyz     :     0.007202
      dx2y2   :     0.010186
      dxy     :     0.004736
  5 H s       :     0.738329  s :     0.738329
  6 H s       :     0.749741  s :     0.749741
  7 H s       :     0.749236  s :     0.749236


                     *******************************
                     * LOEWDIN POPULATION ANALYSIS *
                     *******************************

----------------------
LOEWDIN ATOMIC CHARGES
----------------------
   0 C :    0.121586
   1 O :   -0.254687
   2 O :   -0.282258
   3 H :    0.341090
   4 C :   -0.389558
   5 H :    0.154204
   6 H :    0.154518
   7 H :    0.155105

-------------------------------
LOEWDIN REDUCED ORBITAL CHARGES
-------------------------------
  0 C s       :     2.831756  s :     2.831756
      pz      :     0.759720  p :     2.738521
      px      :     1.034660
      py      :     0.944140
      dz2     :     0.022030  d :     0.308137
      dxz     :     0.022164
      dyz     :     0.057825
      dx2y2   :     0.123742
      dxy     :     0.082375
  1 O s       :     3.533054  s :     3.533054
      pz      :     1.423362  p :     4.666683
      px      :     1.684604
      py      :     1.558717
      dz2     :     0.006792  d :     0.054950
      dxz     :     0.005430
      dyz     :     0.010404
      dx2y2   :     0.013298
      dxy     :     0.019025
  2 O s       :     3.495006  s :     3.495006
      pz      :     1.768536  p :     4.732124
      px      :     1.390057
      py      :     1.573532
      dz2     :     0.007747  d :     0.055128
      dxz     :     0.001407
      dyz     :     0.009120
      dx2y2   :     0.026144
      dxy     :     0.010710
  3 H s       :     0.658910  s :     0.658910
  4 C s       :     2.962076  s :     2.962076
      pz      :     1.144042  p :     3.364018
      px      :     1.069657
      py      :     1.150319
      dz2     :     0.013044  d :     0.063464
      dxz     :     0.009120
      dyz     :     0.010997
      dx2y2   :     0.020876
      dxy     :     0.009428
  5 H s       :     0.845796  s :     0.845796
  6 H s       :     0.845482  s :     0.845482
  7 H s       :     0.844895  s :     0.844895


                      *****************************
                      * MAYER POPULATION ANALYSIS *
                      *****************************

  NA   - Mulliken gross atomic population
  ZA   - Total nuclear charge
  QA   - Mulliken gross atomic charge
  VA   - Mayer's total valence
  BVA  - Mayer's bonded valence
  FA   - Mayer's free valence

  ATOM       NA         ZA         QA         VA         BVA        FA
  0 C      5.4933     6.0000     0.5067     4.1289     4.1289    -0.0000
  1 O      8.4108     8.0000    -0.4108     2.1848     2.1848    -0.0000
  2 O      8.5662     8.0000    -0.5662     2.0088     2.0088    -0.0000
  3 H      0.5541     1.0000     0.4459     0.7924     0.7924    -0.0000
  4 C      6.7383     6.0000    -0.7383     3.6686     3.6686     0.0000
  5 H      0.7383     1.0000     0.2617     0.9010     0.9010     0.0000
  6 H      0.7497     1.0000     0.2503     0.9012     0.9012    -0.0000
  7 H      0.7492     1.0000     0.2508     0.9009     0.9009     0.0000

  Mayer bond orders larger than 0.100000
B(  0-C ,  1-O ) :   2.0472 B(  0-C ,  2-O ) :   1.1703 B(  0-C ,  4-C ) :   0.9378 
B(  2-O ,  3-H ) :   0.7543 B(  4-C ,  5-H ) :   0.9173 B(  4-C ,  6-H ) :   0.9060 
B(  4-C ,  7-H ) :   0.9058 

-------
TIMINGS
-------

Total SCF time: 0 days 0 hours 1 min 7 sec 

Total time                  ....      67.108 sec
Sum of individual times     ....      59.963 sec  ( 89.4%)

Fock matrix formation       ....      48.626 sec  ( 72.5%)
  Split-RI-J                ....       5.934 sec  ( 12.2% of F)
  Chain of spheres X        ....       9.787 sec  ( 20.1% of F)
  XC integration            ....      15.475 sec  ( 31.8% of F)
    Basis function eval.    ....       1.221 sec  (  7.9% of XC)
    Density eval.           ....       0.872 sec  (  5.6% of XC)
    XC-Functional eval.     ....       0.876 sec  (  5.7% of XC)
    XC-Potential eval.      ....       0.388 sec  (  2.5% of XC)
Diagonalization             ....       1.292 sec  (  1.9%)
Density matrix formation    ....       0.042 sec  (  0.1%)
Population analysis         ....       0.733 sec  (  1.1%)
Initial guess               ....       0.048 sec  (  0.1%)
Orbital Transformation      ....       0.000 sec  (  0.0%)
Orbital Orthonormalization  ....       0.000 sec  (  0.0%)
DIIS solution               ....       2.355 sec  (  3.5%)
SOSCF solution              ....       1.818 sec  (  2.7%)
Grid generation             ....       5.048 sec  (  7.5%)

Maximum memory used throughout the entire SCF-calculation: 47.0 MB


-------------------------------------------------------------------------------
                          DFT DISPERSION CORRECTION                            
                                                                               
                              DFTD3 V3.1  Rev 1                                
                          USING Becke-Johnson damping                          
-------------------------------------------------------------------------------
The PBEh-3c composite method is recognized
Using three-body term ABC
Active option DFTDOPT                   ...         4   

molecular C6(AA) [au] = 530.201306 


            DFT-D V3
 parameters
 s6 scaling factor         :     1.0000 
 a1 scaling factor         :     0.4860 
 s8 scaling factor         :     0.0000 
 a2 scaling factor         :     4.5000 
 Damping factor alpha9(ATM):    16.0000 
 ad hoc parameters k1-k3   :    16.0000     1.3333    -4.0000 

 Edisp/kcal,au: -1.451706363626  -0.002313441101 
 E6   /kcal   :  -1.453416832 
 E8   /kcal   :  -0.000000000 
 E6(ABC)      :   0.001710468 
 % E8         :   0.000000000 
 % E6(ABC)    :  -0.117824654 

-------------------------   ----------------
Dispersion correction           -0.002313441
-------------------------   ----------------

------------------   -----------------
gCP correction             0.015414440
------------------   -----------------

-------------------------   --------------------
FINAL SINGLE POINT ENERGY      -228.600415719443
-------------------------   --------------------


                            ***************************************
                            *     ORCA property calculations      *
                            ***************************************

                                    ---------------------
                                    Active property flags
                                    ---------------------
   (+) Dipole Moment


------------------------------------------------------------------------------
                       ORCA ELECTRIC PROPERTIES CALCULATION
------------------------------------------------------------------------------

Dipole Moment Calculation                       ... on
Quadrupole Moment Calculation                   ... off
Polarizability Calculation                      ... off
GBWName                                         ... pbeh-3c.gbw
Electron density                                ... pbeh-3c.scfp
The origin for moment calculation is the CENTER OF MASS  = ( 0.943573,  0.159181  0.041810)

-------------
DIPOLE MOMENT
-------------
                                X             Y             Z
Electronic contribution:      3.36476       0.04489       0.02438
Nuclear contribution   :     -3.63452      -0.72207      -0.18675
                        -----------------------------------------
Total Dipole Moment    :     -0.26976      -0.67717      -0.16237
                        -----------------------------------------
Magnitude (a.u.)       :      0.74679
Magnitude (Debye)      :      1.89819



--------------------
Rotational spectrum 
--------------------
 
Rotational constants in cm-1:     0.376939     0.320807     0.179013 
Rotational constants in MHz : 11300.357488  9617.553464  5366.664422 

 Dipole components along the rotational axes: 
x,y,z [a.u.] :    -0.170897    -0.726967     0.002824 
x,y,z [Debye]:    -0.434386    -1.847803     0.007177 

 

Timings for individual modules:

Sum of individual times         ...       71.463 sec (=   1.191 min)
GTO integral calculation        ...        3.502 sec (=   0.058 min)   4.9 %
SCF iterations                  ...       67.961 sec (=   1.133 min)  95.1 %
                             ****ORCA TERMINATED NORMALLY****
TOTAL RUN TIME: 0 days 0 hours 1 minutes 13 seconds 610 msec
