
                                 *****************
                                 * O   R   C   A *
                                 *****************

                                            #,                                       
                                            ###                                      
                                            ####                                     
                                            #####                                    
                                            ######                                   
                                           ########,                                 
                                     ,,################,,,,,                         
                               ,,#################################,,                 
                          ,,##########################################,,             
                       ,#########################################, ''#####,          
                    ,#############################################,,   '####,        
                  ,##################################################,,,,####,       
                ,###########''''           ''''###############################       
              ,#####''   ,,,,##########,,,,          '''####'''          '####       
            ,##' ,,,,###########################,,,                        '##       
           ' ,,###''''                  '''############,,,                           
         ,,##''                                '''############,,,,        ,,,,,,###''
      ,#''                                            '''#######################'''  
     '                                                          ''''####''''         
             ,#######,   #######,   ,#######,      ##                                
            ,#'     '#,  ##    ##  ,#'     '#,    #''#        ######   ,####,        
            ##       ##  ##   ,#'  ##            #'  '#       #        #'  '#        
            ##       ##  #######   ##           ,######,      #####,   #    #        
            '#,     ,#'  ##    ##  '#,     ,#' ,#      #,         ##   #,  ,#        
             '#######'   ##     ##  '#######'  #'      '#     #####' # '####'        



                  #######################################################
                  #                        -***-                        #
                  #          Department of theory and spectroscopy      #
                  #    Directorship and core code : Frank Neese         #
                  #        Max Planck Institute fuer Kohlenforschung    #
                  #                Kaiser Wilhelm Platz 1               #
                  #                 D-45470 Muelheim/Ruhr               #
                  #                      Germany                        #
                  #                                                     #
                  #                  All rights reserved                #
                  #                        -***-                        #
                  #######################################################


                         Program Version 5.0.3 -  RELEASE  -


 With contributions from (in alphabetic order):
   Daniel Aravena         : Magnetic Suceptibility
   Michael Atanasov       : Ab Initio Ligand Field Theory (pilot matlab implementation)
   Alexander A. Auer      : GIAO ZORA, VPT2 properties, NMR spectrum
   Ute Becker             : Parallelization
   Giovanni Bistoni       : ED, misc. LED, open-shell LED, HFLD
   Martin Brehm           : Molecular dynamics
   Dmytro Bykov           : SCF Hessian
   Vijay G. Chilkuri      : MRCI spin determinant printing, contributions to CSF-ICE
   Dipayan Datta          : RHF DLPNO-CCSD density
   Achintya Kumar Dutta   : EOM-CC, STEOM-CC
   Dmitry Ganyushin       : Spin-Orbit,Spin-Spin,Magnetic field MRCI
   Miquel Garcia          : C-PCM and meta-GGA Hessian, CC/C-PCM, Gaussian charge scheme
   Yang Guo               : DLPNO-NEVPT2, F12-NEVPT2, CIM, IAO-localization
   Andreas Hansen         : Spin unrestricted coupled pair/coupled cluster methods
   Benjamin Helmich-Paris : MC-RPA, TRAH-SCF, COSX integrals
   Lee Huntington         : MR-EOM, pCC
   Robert Izsak           : Overlap fitted RIJCOSX, COSX-SCS-MP3, EOM
   Marcus Kettner         : VPT2
   Christian Kollmar      : KDIIS, OOCD, Brueckner-CCSD(T), CCSD density, CASPT2, CASPT2-K
   Simone Kossmann        : Meta GGA functionals, TD-DFT gradient, OOMP2, MP2 Hessian
   Martin Krupicka        : Initial AUTO-CI
   Lucas Lang             : DCDCAS
   Marvin Lechner         : AUTO-CI (C++ implementation), FIC-MRCC
   Dagmar Lenk            : GEPOL surface, SMD
   Dimitrios Liakos       : Extrapolation schemes; Compound Job, initial MDCI parallelization
   Dimitrios Manganas     : Further ROCIS development; embedding schemes
   Dimitrios Pantazis     : SARC Basis sets
   Anastasios Papadopoulos: AUTO-CI, single reference methods and gradients
   Taras Petrenko         : DFT Hessian,TD-DFT gradient, ASA, ECA, R-Raman, ABS, FL, XAS/XES, NRVS
   Peter Pinski           : DLPNO-MP2, DLPNO-MP2 Gradient
   Christoph Reimann      : Effective Core Potentials
   Marius Retegan         : Local ZFS, SOC
   Christoph Riplinger    : Optimizer, TS searches, QM/MM, DLPNO-CCSD(T), (RO)-DLPNO pert. Triples
   Tobias Risthaus        : Range-separated hybrids, TD-DFT gradient, RPA, STAB
   Michael Roemelt        : Original ROCIS implementation
   Masaaki Saitow         : Open-shell DLPNO-CCSD energy and density
   Barbara Sandhoefer     : DKH picture change effects
   Avijit Sen             : IP-ROCIS
   Kantharuban Sivalingam : CASSCF convergence, NEVPT2, FIC-MRCI
   Bernardo de Souza      : ESD, SOC TD-DFT
   Georgi Stoychev        : AutoAux, RI-MP2 NMR, DLPNO-MP2 response
   Willem Van den Heuvel  : Paramagnetic NMR
   Boris Wezisla          : Elementary symmetry handling
   Frank Wennmohs         : Technical directorship


 We gratefully acknowledge several colleagues who have allowed us to
 interface, adapt or use parts of their codes:
   Stefan Grimme, W. Hujo, H. Kruse, P. Pracht,  : VdW corrections, initial TS optimization,
                  C. Bannwarth, S. Ehlert          DFT functionals, gCP, sTDA/sTD-DF
   Ed Valeev, F. Pavosevic, A. Kumar             : LibInt (2-el integral package), F12 methods
   Garnet Chan, S. Sharma, J. Yang, R. Olivares  : DMRG
   Ulf Ekstrom                                   : XCFun DFT Library
   Mihaly Kallay                                 : mrcc  (arbitrary order and MRCC methods)
   Jiri Pittner, Ondrej Demel                    : Mk-CCSD
   Frank Weinhold                                : gennbo (NPA and NBO analysis)
   Christopher J. Cramer and Donald G. Truhlar   : smd solvation model
   Lars Goerigk                                  : TD-DFT with DH, B97 family of functionals
   V. Asgeirsson, H. Jonsson                     : NEB implementation
   FAccTs GmbH                                   : IRC, NEB, NEB-TS, DLPNO-Multilevel, CI-OPT
                                                   MM, QMMM, 2- and 3-layer-ONIOM, Crystal-QMMM,
                                                   LR-CPCM, SF, NACMEs, symmetry and pop. for TD-DFT,
                                                   nearIR, NL-DFT gradient (VV10), updates on ESD,
                                                   ML-optimized integration grids
   S Lehtola, MJT Oliveira, MAL Marques          : LibXC Library
   Liviu Ungur et al                             : ANISO software


 Your calculation uses the libint2 library for the computation of 2-el integrals
 For citations please refer to: http://libint.valeyev.net

 Your ORCA version has been built with support for libXC version: 5.1.0
 For citations please refer to: https://tddft.org/programs/libxc/

 This ORCA versions uses:
   CBLAS   interface :  Fast vector & matrix operations
   LAPACKE interface :  Fast linear algebra routines
   SCALAPACK package :  Parallel linear algebra routines
   Shared memory     :  Shared parallel matrices
   BLAS/LAPACK       :  OpenBLAS 0.3.15  USE64BITINT DYNAMIC_ARCH NO_AFFINITY Haswell SINGLE_THREADED
        Core in use  :  Haswell
   Copyright (c) 2011-2014, The OpenBLAS Project




***************************************
The coordinates will be read from file: 18.xyz
***************************************


Your calculation utilizes the geometrical counterpoise correction gCP
Please cite in your paper:
H.Kruse, S. Grimme J.Chem.Phys., 136, (2012), 154101 
   

Your calculation utilizes the atom-pairwise dispersion correction
with the Becke-Johnson damping scheme (D3BJ)
Cite in your paper:
S.Grimme, S.Ehrlich, L.Goerigk, J Comput Chem, (2011), 32, 1456–1465 
S.Grimme, J.Antony, S.Ehrlich and H.Krieg, J.Chem.Phys., 132, (2010), 154104 
   

Your calculation employs the composite approach PBEh-3c.
Please cite in your paper:
S. Grimme, J. G. Brandenburg, C. Bannwarth, A. Hansen J.Chem.Phys., 143, (2015), 054107 
   

================================================================================

----- Orbital basis set information -----
Your calculation utilizes the basis: def2-mSVP

----- AuxJ basis set information -----
Your calculation utilizes the auxiliary basis: def2/J
   F. Weigend, Phys. Chem. Chem. Phys. 8, 1057 (2006).

================================================================================
                                        WARNINGS
                       Please study these warnings very carefully!
================================================================================


INFO   : the flag for use of the SHARK integral package has been found!

================================================================================
                                       INPUT FILE
================================================================================
NAME = pbeh-3c.inp
|  1> ! PBEh-3c def2/J TightSCF DefGrid3
|  2> 
|  3> %maxcore 60000
|  4> 
|  5> %pal
|  6> nprocs 4
|  7> end
|  8> 
|  9> *xyzfile 0 1 18.xyz
| 10> 
| 11>                          ****END OF INPUT****
================================================================================

                       ****************************
                       * Single Point Calculation *
                       ****************************

---------------------------------
CARTESIAN COORDINATES (ANGSTROEM)
---------------------------------
  C     -0.808940    0.739223   -1.207108
  C     -1.495803    0.619890    0.000000
  C     -0.808940    0.739223    1.207108
  C      0.564568    0.977985    1.207074
  C      1.251385    1.097101    0.000000
  C      0.564568    0.977985   -1.207074
  H     -1.341609    0.643976   -2.143290
  H     -2.559880    0.428583    0.000000
  H     -1.341609    0.643976    2.143290
  H      1.097142    1.070833    2.143696
  H      2.316701    1.282976    0.000000
  H      1.097142    1.070833   -2.143696
  H      0.689891   -2.922604   -0.806073
  H      0.689891   -2.922604    0.806073
  H     -0.025242   -1.721596    0.000000
  N      0.110734   -2.725780    0.000000

----------------------------
CARTESIAN COORDINATES (A.U.)
----------------------------
  NO LB      ZA    FRAG     MASS         X           Y           Z
   0 C     6.0000    0    12.011   -1.528675    1.396929   -2.281104
   1 C     6.0000    0    12.011   -2.826659    1.171423    0.000000
   2 C     6.0000    0    12.011   -1.528675    1.396929    2.281104
   3 C     6.0000    0    12.011    1.066880    1.848123    2.281039
   4 C     6.0000    0    12.011    2.364775    2.073221    0.000000
   5 C     6.0000    0    12.011    1.066880    1.848123   -2.281039
   6 H     1.0000    0     1.008   -2.535273    1.216939   -4.050231
   7 H     1.0000    0     1.008   -4.837472    0.809904    0.000000
   8 H     1.0000    0     1.008   -2.535273    1.216939    4.050231
   9 H     1.0000    0     1.008    2.073298    2.023581    4.050998
  10 H     1.0000    0     1.008    4.377929    2.424473    0.000000
  11 H     1.0000    0     1.008    2.073298    2.023581   -4.050998
  12 H     1.0000    0     1.008    1.303705   -5.522921   -1.523258
  13 H     1.0000    0     1.008    1.303705   -5.522921    1.523258
  14 H     1.0000    0     1.008   -0.047700   -3.253345    0.000000
  15 N     7.0000    0    14.007    0.209258   -5.150977    0.000000

--------------------------------
INTERNAL COORDINATES (ANGSTROEM)
--------------------------------
 C      0   0   0     0.000000000000     0.00000000     0.00000000
 C      1   0   0     1.393962748095     0.00000000     0.00000000
 C      2   1   0     1.393962748095   119.98374965     0.00000000
 C      3   2   1     1.394106284393   120.00671124     0.00000000
 C      4   3   2     1.393891406867   120.00728618     0.00000000
 C      5   4   3     1.393891406867   119.98825022     0.02569310
 H      1   2   3     1.081315771440   119.96396936   179.83711211
 H      2   1   3     1.081137263736   120.00755550   180.38824225
 H      3   2   1     1.081315771440   119.96396936   180.16288789
 H      4   3   2     1.081441641171   119.99160219   179.98062774
 H      5   4   3     1.081409488337   120.00585786   179.95856687
 H      6   5   4     1.081441641171   120.00111154   179.97090145
 H      6   5   4     3.923149084845    88.89470416   279.84715215
 H     13   6   5     1.612146400000    95.86667587    29.69055559
 H     13   6   5     1.613564274429    45.32090063    65.80238296
 N     13   6   5     1.011887528688    82.51578144    64.48772886

---------------------------
INTERNAL COORDINATES (A.U.)
---------------------------
 C      0   0   0     0.000000000000     0.00000000     0.00000000
 C      1   0   0     2.634207834788     0.00000000     0.00000000
 C      2   1   0     2.634207834788   119.98374965     0.00000000
 C      3   2   1     2.634479079081   120.00671124     0.00000000
 C      4   3   2     2.634073019406   120.00728618     0.00000000
 C      5   4   3     2.634073019406   119.98825022     0.02569310
 H      1   2   3     2.043390672311   119.96396936   179.83711211
 H      2   1   3     2.043053341639   120.00755550   180.38824225
 H      3   2   1     2.043390672311   119.96396936   180.16288789
 H      4   3   2     2.043628531632   119.99160219   179.98062774
 H      5   4   3     2.043567771581   120.00585786   179.95856687
 H      6   5   4     2.043628531632   120.00111154   179.97090145
 H      6   5   4     7.413677352901    88.89470416   279.84715215
 H     13   6   5     3.046515183787    95.86667587    29.69055559
 H     13   6   5     3.049194578150    45.32090063    65.80238296
 N     13   6   5     1.912190307550    82.51578144    64.48772886

---------------------
BASIS SET INFORMATION
---------------------
There are 3 groups of distinct atoms

 Group   1 Type C   : 8s4p1d contracted to 4s2p1d pattern {5111/31/1}
 Group   2 Type H   : 4s contracted to 2s pattern {31}
 Group   3 Type N   : 8s4p1d contracted to 4s2p1d pattern {5111/31/1}

Atom   0C    basis set group =>   1
Atom   1C    basis set group =>   1
Atom   2C    basis set group =>   1
Atom   3C    basis set group =>   1
Atom   4C    basis set group =>   1
Atom   5C    basis set group =>   1
Atom   6H    basis set group =>   2
Atom   7H    basis set group =>   2
Atom   8H    basis set group =>   2
Atom   9H    basis set group =>   2
Atom  10H    basis set group =>   2
Atom  11H    basis set group =>   2
Atom  12H    basis set group =>   2
Atom  13H    basis set group =>   2
Atom  14H    basis set group =>   2
Atom  15N    basis set group =>   3
---------------------------------
AUXILIARY/J BASIS SET INFORMATION
---------------------------------
There are 3 groups of distinct atoms

 Group   1 Type C   : 12s5p4d2f1g contracted to 6s4p3d1f1g pattern {711111/2111/211/2/1}
 Group   2 Type H   : 5s2p1d contracted to 3s1p1d pattern {311/2/1}
 Group   3 Type N   : 12s5p4d2f1g contracted to 6s4p3d1f1g pattern {711111/2111/211/2/1}

Atom   0C    basis set group =>   1
Atom   1C    basis set group =>   1
Atom   2C    basis set group =>   1
Atom   3C    basis set group =>   1
Atom   4C    basis set group =>   1
Atom   5C    basis set group =>   1
Atom   6H    basis set group =>   2
Atom   7H    basis set group =>   2
Atom   8H    basis set group =>   2
Atom   9H    basis set group =>   2
Atom  10H    basis set group =>   2
Atom  11H    basis set group =>   2
Atom  12H    basis set group =>   2
Atom  13H    basis set group =>   2
Atom  14H    basis set group =>   2
Atom  15N    basis set group =>   3


           ************************************************************
           *        Program running with 4 parallel MPI-processes     *
           *              working on a common directory               *
           ************************************************************
------------------------------------------------------------------------------
                           ORCA GTO INTEGRAL CALCULATION
                           -- RI-GTO INTEGRALS CHOSEN --
------------------------------------------------------------------------------
------------------------------------------------------------------------------
                   ___                                                        
                  /   \      - P O W E R E D   B Y -                         
                 /     \                                                     
                 |  |  |   _    _      __       _____    __    __             
                 |  |  |  | |  | |    /  \     |  _  \  |  |  /  |          
                  \  \/   | |  | |   /    \    | | | |  |  | /  /          
                 / \  \   | |__| |  /  /\  \   | |_| |  |  |/  /          
                |  |  |   |  __  | /  /__\  \  |    /   |      \           
                |  |  |   | |  | | |   __   |  |    \   |  |\   \          
                \     /   | |  | | |  |  |  |  | |\  \  |  | \   \       
                 \___/    |_|  |_| |__|  |__|  |_| \__\ |__|  \__/        
                                                                              
                      - O R C A' S   B I G   F R I E N D -                    
                                      &                                       
                       - I N T E G R A L  F E E D E R -                       
                                                                              
 v1 FN, 2020, v2 2021                                                         
------------------------------------------------------------------------------


Reading SHARK input file pbeh-3c.SHARKINP.tmp ... ok
----------------------
SHARK INTEGRAL PACKAGE
----------------------

Number of atoms                             ...     16
Number of basis functions                   ...    123
Number of shells                            ...     67
Maximum angular momentum                    ...      2
Integral batch strategy                     ... SHARK/LIBINT Hybrid
RI-J (if used) integral strategy            ... SPLIT-RIJ (Revised 2003 algorithm where possible)
Printlevel                                  ...      1
Contraction scheme used                     ... SEGMENTED contraction
Coulomb Range Separation                    ... NOT USED
Exchange Range Separation                   ... NOT USED
Finite Nucleus Model                        ... NOT USED
Auxiliary Coulomb fitting basis             ... AVAILABLE
   # of basis functions in Aux-J            ...    442
   # of shells in Aux-J                     ...    150
   Maximum angular momentum in Aux-J        ...      4
Auxiliary J/K fitting basis                 ... NOT available
Auxiliary Correlation fitting basis         ... NOT available
Auxiliary 'external' fitting basis          ... NOT available
Integral threshold                          ...     2.500000e-11
Primitive cut-off                           ...     2.500000e-12
Primitive pair pre-selection threshold      ...     2.500000e-12

Calculating pre-screening integrals         ... done (  0.0 sec) Dimension = 67
Organizing shell pair data                  ... done (  0.3 sec)
Shell pair information
Total number of shell pairs                 ...      2278
Shell pairs after pre-screening             ...      2094
Total number of primitive shell pairs       ...      8246
Primitive shell pairs kept                  ...      5410
          la=0 lb=0:    936 shell pairs
          la=1 lb=0:    629 shell pairs
          la=1 lb=1:    105 shell pairs
          la=2 lb=0:    298 shell pairs
          la=2 lb=1:     98 shell pairs
          la=2 lb=2:     28 shell pairs

Calculating one electron integrals          ... done (  0.0 sec)
Calculating RI/J V-Matrix + Cholesky decomp.... done (  0.7 sec)
Calculating Nuclear repulsion               ... done (  0.2 sec) ENN=    273.279528280625 Eh

SHARK setup successfully completed in   2.4 seconds

Maximum memory used throughout the entire GTOINT-calculation: 10.8 MB


           ************************************************************
           *        Program running with 4 parallel MPI-processes     *
           *              working on a common directory               *
           ************************************************************
-------------------------------------------------------------------------------
                                 ORCA SCF
-------------------------------------------------------------------------------

------------
SCF SETTINGS
------------
Hamiltonian:
 Density Functional     Method          .... DFT(GTOs)
 Exchange Functional    Exchange        .... PBE
   PBE kappa parameter   XKappa         ....  1.024500
   PBE mue parameter    XMuePBE         ....  0.123457
 Correlation Functional Correlation     .... PBE
   PBE beta parameter  CBetaPBE         ....  0.030000
 LDA part of GGA corr.  LDAOpt          .... PW91-LDA
 Gradients option       PostSCFGGA      .... off
 Hybrid DFT is turned on
   Fraction HF Exchange ScalHFX         ....  0.420000
   Scaling of DF-GGA-X  ScalDFX         ....  0.580000
   Scaling of DF-GGA-C  ScalDFC         ....  1.000000
   Scaling of DF-LDA-C  ScalLDAC        ....  1.000000
   Perturbative correction              ....  0.000000
   Density functional embedding theory  .... OFF
 RI-approximation to the Coulomb term is turned on
   Number of AuxJ basis functions       .... 442
   RIJ-ON(X) (HFX calculated with O(N)) .... on
   Number of AuxJ basis functions       .... 442
   RIJ-COSX (HFX calculated with COS-X)).... on


General Settings:
 Integral files         IntName         .... pbeh-3c
 Hartree-Fock type      HFTyp           .... RHF
 Total Charge           Charge          ....    0
 Multiplicity           Mult            ....    1
 Number of Electrons    NEL             ....   52
 Basis Dimension        Dim             ....  123
 Nuclear Repulsion      ENuc            ....    273.2795282806 Eh

Convergence Acceleration:
 DIIS                   CNVDIIS         .... on
   Start iteration      DIISMaxIt       ....    12
   Startup error        DIISStart       ....  0.200000
   # of expansion vecs  DIISMaxEq       ....     5
   Bias factor          DIISBfac        ....   1.050
   Max. coefficient     DIISMaxC        ....  10.000
 Trust-Rad. Augm. Hess. CNVTRAH         .... auto
   Auto Start mean grad. ratio tolernc. ....  1.125000
   Auto Start start iteration           ....    20
   Auto Start num. interpolation iter.  ....    10
   Max. Number of Micro iterations      ....    16
   Max. Number of Macro iterations      .... Maxiter - #DIIS iter
   Number of Davidson start vectors     ....     2
   Converg. threshold I  (grad. norm)   ....   1.000e-05
   Converg. threshold II (energy diff.) ....   1.000e-08
   Grad. Scal. Fac. for Micro threshold ....   0.100
   Minimum threshold for Micro iter.    ....   0.010
   NR start threshold (gradient norm)   ....   0.001
   Initial trust radius                 ....   0.400
   Minimum AH scaling param. (alpha)    ....   1.000
   Maximum AH scaling param. (alpha)    .... 1000.000
   Orbital update algorithm             .... Taylor
   White noise on init. David. guess    .... on
   Maximum white noise                  ....   0.010
   Quad. conv. algorithm                .... NR
   COSX micro iterations for RIJONX calc.... off
 SOSCF                  CNVSOSCF        .... on
   Start iteration      SOSCFMaxIt      ....   150
   Startup grad/error   SOSCFStart      ....  0.003300
 Level Shifting         CNVShift        .... on
   Level shift para.    LevelShift      ....    0.2500
   Turn off err/grad.   ShiftErr        ....    0.0010
 Zerner damping         CNVZerner       .... off
 Static damping         CNVDamp         .... on
   Fraction old density DampFac         ....    0.7000
   Max. Damping (<1)    DampMax         ....    0.9800
   Min. Damping (>=0)   DampMin         ....    0.0000
   Turn off err/grad.   DampErr         ....    0.1000
 Fernandez-Rico         CNVRico         .... off

SCF Procedure:
 Maximum # iterations   MaxIter         ....   125
 SCF integral mode      SCFMode         .... Direct
   Integral package                     .... SHARK and LIBINT hybrid scheme
 Reset frequency        DirectResetFreq ....    20
 Integral Threshold     Thresh          ....  2.500e-11 Eh
 Primitive CutOff       TCut            ....  2.500e-12 Eh

Convergence Tolerance:
 Convergence Check Mode ConvCheckMode   .... Total+1el-Energy
 Convergence forced     ConvForced      .... 0
 Energy Change          TolE            ....  1.000e-08 Eh
 1-El. energy change                    ....  1.000e-05 Eh
 Orbital Gradient       TolG            ....  1.000e-05
 Orbital Rotation angle TolX            ....  1.000e-05
 DIIS Error             TolErr          ....  5.000e-07


Diagonalization of the overlap matrix:
Smallest eigenvalue                        ... 4.887e-04
Time for diagonalization                   ...    0.003 sec
Threshold for overlap eigenvalues          ... 1.000e-08
Number of eigenvalues below threshold      ... 0
Time for construction of square roots      ...    0.234 sec
Total time needed                          ...    0.265 sec

--------------------------------
INITIAL GUESS: MINIMAL BASIS EHT
--------------------------------
The minimal basis has 44 functions
EHT matrix was diagonalized
Basis set overlap was calculated now projecting the orbitals
Using GuessMode=FMatrix for the initial guess
C*T matrix was formed
Effective Fockian was calculated
Effective Fockian was diagonalized
Initial density was built
                      ------------------
                      INITIAL GUESS DONE
                      ------------------
-------------------
DFT GRID GENERATION
-------------------

General Integration Accuracy     IntAcc      ... 4.959
Radial Grid Type                 RadialGrid  ... OptM3 with GC (2021)
Angular Grid (max. ang.)         AngularGrid ... 6 (Lebedev-590)
Angular grid pruning method      GridPruning ... 4 (adaptive)
Weight generation scheme         WeightScheme... Becke
Basis function cutoff            BFCut       ... 1.0000e-11
Integration weight cutoff        WCut        ... 1.0000e-14
Angular grids for H and He will be reduced by one unit
Partially contracted basis set               ... off
Rotationally invariant grid construction     ... off

Total number of grid points                  ...   178993
Total number of batches                      ...     2806
Average number of points per batch           ...       63
Average number of grid points per atom       ...    11187
Time for grid setup =    3.514 sec

--------------------
COSX GRID GENERATION
--------------------

GRIDX 1
-------
General Integration Accuracy     IntAcc      ... 4.020
Radial Grid Type                 RadialGrid  ... OptM3 with GC (2021)
Angular Grid (max. ang.)         AngularGrid ... 2 (Lebedev-110)
Angular grid pruning method      GridPruning ... 4 (adaptive)
Weight generation scheme         WeightScheme... Becke
Basis function cutoff            BFCut       ... 1.0000e-11
Integration weight cutoff        WCut        ... 1.0000e-14
Angular grids for H and He will be reduced by one unit
Partially contracted basis set               ... on
Rotationally invariant grid construction     ... off

Total number of grid points                  ...    19499
Total number of batches                      ...      314
Average number of points per batch           ...       62
Average number of grid points per atom       ...     1219
UseSFitting                                  ... on

GRIDX 2
-------
General Integration Accuracy     IntAcc      ... 4.338
Radial Grid Type                 RadialGrid  ... OptM3 with GC (2021)
Angular Grid (max. ang.)         AngularGrid ... 3 (Lebedev-194)
Angular grid pruning method      GridPruning ... 4 (adaptive)
Weight generation scheme         WeightScheme... Becke
Basis function cutoff            BFCut       ... 1.0000e-11
Integration weight cutoff        WCut        ... 1.0000e-14
Angular grids for H and He will be reduced by one unit
Partially contracted basis set               ... on
Rotationally invariant grid construction     ... off

Total number of grid points                  ...    42661
Total number of batches                      ...      674
Average number of points per batch           ...       63
Average number of grid points per atom       ...     2666
UseSFitting                                  ... on

GRIDX 3
-------
General Integration Accuracy     IntAcc      ... 4.871
Radial Grid Type                 RadialGrid  ... OptM3 with GC (2021)
Angular Grid (max. ang.)         AngularGrid ... 4 (Lebedev-302)
Angular grid pruning method      GridPruning ... 4 (adaptive)
Weight generation scheme         WeightScheme... Becke
Basis function cutoff            BFCut       ... 1.0000e-11
Integration weight cutoff        WCut        ... 1.0000e-14
Angular grids for H and He will be reduced by one unit
Partially contracted basis set               ... on
Rotationally invariant grid construction     ... off

Total number of grid points                  ...    82872
Total number of batches                      ...     1302
Average number of points per batch           ...       63
Average number of grid points per atom       ...     5180
UseSFitting                                  ... on

Time for X-Grid setup             =    3.388 sec

--------------
SCF ITERATIONS
--------------
ITER       Energy         Delta-E        Max-DP      RMS-DP      [F,P]     Damp
               ***  Starting incremental Fock matrix formation  ***
  0   -287.4318788520   0.000000000000 0.13238989  0.00384194  0.4089272 0.7000
  1   -287.6519717514  -0.220092899427 0.08285068  0.00274758  0.2886791 0.7000
  2   -287.8024544796  -0.150482728248 0.04865041  0.00198145  0.2026674 0.7000
                               ***Turning on DIIS***
  3   -287.9087343230  -0.106279843340 0.02978701  0.00145392  0.1422787 0.7000
  4   -287.9843839609  -0.075649637938 0.06482600  0.00382198  0.0998869 0.0000
  5   -288.1664971562  -0.182113195266 0.01495812  0.00033362  0.0120636 0.0000
  6   -288.1668915977  -0.000394441562 0.00502609  0.00012422  0.0044641 0.0000
                      *** Initiating the SOSCF procedure ***
                           *** Shutting down DIIS ***
                      *** Re-Reading the Fockian *** 
                      *** Removing any level shift *** 
ITER      Energy       Delta-E        Grad      Rot      Max-DP    RMS-DP
  7   -288.16696580  -0.0000742052  0.001456  0.001456  0.004719  0.000077
               *** Restarting incremental Fock matrix formation ***
  8   -288.16699912  -0.0000333208  0.000648  0.001448  0.002938  0.000050
  9   -288.16700224  -0.0000031175  0.000162  0.000576  0.001110  0.000020
 10   -288.16700246  -0.0000002222  0.000108  0.000065  0.000158  0.000003
 11   -288.16700253  -0.0000000647  0.000026  0.000055  0.000116  0.000002
 12   -288.16700253  -0.0000000027  0.000009  0.000017  0.000015  0.000001
 13   -288.16700253   0.0000000015  0.000009  0.000011  0.000023  0.000000
                 **** Energy Check signals convergence ****
              ***Rediagonalizing the Fockian in SOSCF/NRSCF***

               *****************************************************
               *                     SUCCESS                       *
               *           SCF CONVERGED AFTER  14 CYCLES          *
               *****************************************************

Old exchange energy                            =    -17.172073969 Eh
New exchange energy                            =    -17.172073233 Eh
Exchange energy change after final integration =      0.000000736 Eh
Total energy after final integration           =   -288.167001795 Eh
Final COS-X integration done in                =     4.395 sec

----------------
TOTAL SCF ENERGY
----------------

Total Energy       :         -288.16700180 Eh           -7841.42277 eV

Components:
Nuclear Repulsion  :          273.27952828 Eh            7436.31402 eV
Electronic Energy  :         -561.44653008 Eh          -15277.73679 eV
One Electron Energy:         -929.23100251 Eh          -25285.66108 eV
Two Electron Energy:          367.78447243 Eh           10007.92429 eV
Max COSX asymmetry :            0.00000071 Eh               0.00002 eV

Virial components:
Potential Energy   :         -574.05988004 Eh          -15620.96349 eV
Kinetic Energy     :          285.89287825 Eh            7779.54072 eV
Virial Ratio       :            2.00795446


DFT components:
N(Alpha)           :       25.999998931306 electrons
N(Beta)            :       25.999998931306 electrons
N(Total)           :       51.999997862611 electrons
E(X)               :      -22.794267340050 Eh       
E(C)               :       -2.225093469519 Eh       
E(XC)              :      -25.019360809569 Eh       
DFET-embed. en.    :        0.000000000000 Eh       

---------------
SCF CONVERGENCE
---------------

  Last Energy change         ...   -1.7924e-09  Tolerance :   1.0000e-08
  Last MAX-Density change    ...    9.9920e-16  Tolerance :   1.0000e-07
  Last RMS-Density change    ...    3.2950e-17  Tolerance :   5.0000e-09
  Last Orbital Gradient      ...    8.8552e-07  Tolerance :   1.0000e-05
  Last Orbital Rotation      ...    2.3657e-06  Tolerance :   1.0000e-05

             **** THE GBW FILE WAS UPDATED (pbeh-3c.gbw) ****
             **** DENSITY pbeh-3c.scfp WAS UPDATED ****
             **** ENERGY FILE WAS UPDATED (pbeh-3c.en.tmp) ****
             **** THE GBW FILE WAS UPDATED (pbeh-3c.gbw) ****
             **** DENSITY pbeh-3c.scfp WAS UPDATED ****
----------------
ORBITAL ENERGIES
----------------

  NO   OCC          E(Eh)            E(eV) 
   0   2.0000     -14.581180      -396.7741 
   1   2.0000     -10.455878      -284.5189 
   2   2.0000     -10.455513      -284.5090 
   3   2.0000     -10.455182      -284.5000 
   4   2.0000     -10.454823      -284.4902 
   5   2.0000     -10.454613      -284.4845 
   6   2.0000     -10.454021      -284.4684 
   7   2.0000      -0.959734       -26.1157 
   8   2.0000      -0.921277       -25.0692 
   9   2.0000      -0.842357       -22.9217 
  10   2.0000      -0.842262       -22.9191 
  11   2.0000      -0.685384       -18.6503 
  12   2.0000      -0.685284       -18.6475 
  13   2.0000      -0.598415       -16.2837 
  14   2.0000      -0.531639       -14.4666 
  15   2.0000      -0.515039       -14.0149 
  16   2.0000      -0.495339       -13.4789 
  17   2.0000      -0.495123       -13.4730 
  18   2.0000      -0.488115       -13.2823 
  19   2.0000      -0.487951       -13.2778 
  20   2.0000      -0.426087       -11.5944 
  21   2.0000      -0.404467       -11.0061 
  22   2.0000      -0.404359       -11.0032 
  23   2.0000      -0.301387        -8.2012 
  24   2.0000      -0.300262        -8.1706 
  25   2.0000      -0.293068        -7.9748 
  26   0.0000       0.011831         0.3219 
  27   0.0000       0.012157         0.3308 
  28   0.0000       0.135578         3.6893 
  29   0.0000       0.154152         4.1947 
  30   0.0000       0.189544         5.1578 
  31   0.0000       0.197035         5.3616 
  32   0.0000       0.197562         5.3759 
  33   0.0000       0.218547         5.9470 
  34   0.0000       0.218656         5.9499 
  35   0.0000       0.236885         6.4460 
  36   0.0000       0.238869         6.5000 
  37   0.0000       0.249870         6.7993 
  38   0.0000       0.321683         8.7535 
  39   0.0000       0.321815         8.7570 
  40   0.0000       0.323124         8.7926 
  41   0.0000       0.323406         8.8003 
  42   0.0000       0.444186        12.0869 
  43   0.0000       0.534142        14.5347 
  44   0.0000       0.568740        15.4762 
  45   0.0000       0.572318        15.5736 
  46   0.0000       0.583967        15.8906 
  47   0.0000       0.593862        16.1598 
  48   0.0000       0.612199        16.6588 
  49   0.0000       0.612311        16.6618 
  50   0.0000       0.624254        16.9868 
  51   0.0000       0.625785        17.0285 
  52   0.0000       0.648980        17.6596 
  53   0.0000       0.649488        17.6735 
  54   0.0000       0.670317        18.2403 
  55   0.0000       0.674476        18.3534 
  56   0.0000       0.725914        19.7531 
  57   0.0000       0.744602        20.2616 
  58   0.0000       0.794559        21.6211 
  59   0.0000       0.816501        22.2181 
  60   0.0000       0.843467        22.9519 
  61   0.0000       0.936958        25.4959 
  62   0.0000       0.937978        25.5237 
  63   0.0000       0.962159        26.1817 
  64   0.0000       0.962192        26.1826 
  65   0.0000       0.962667        26.1955 
  66   0.0000       1.032796        28.1038 
  67   0.0000       1.033711        28.1287 
  68   0.0000       1.035926        28.1890 
  69   0.0000       1.059931        28.8422 
  70   0.0000       1.063388        28.9362 
  71   0.0000       1.085772        29.5454 
  72   0.0000       1.088749        29.6264 
  73   0.0000       1.092840        29.7377 
  74   0.0000       1.093004        29.7421 
  75   0.0000       1.164820        31.6964 
  76   0.0000       1.197813        32.5942 
  77   0.0000       1.293719        35.2039 
  78   0.0000       1.294118        35.2147 
  79   0.0000       1.299193        35.3528 
  80   0.0000       1.431716        38.9590 
  81   0.0000       1.529089        41.6086 
  82   0.0000       1.530629        41.6505 
  83   0.0000       1.530788        41.6549 
  84   0.0000       1.560241        42.4563 
  85   0.0000       1.565260        42.5929 
  86   0.0000       1.573944        42.8292 
  87   0.0000       1.752301        47.6825 
  88   0.0000       1.752411        47.6855 
  89   0.0000       1.809170        49.2300 
  90   0.0000       1.810294        49.2606 
  91   0.0000       1.930153        52.5221 
  92   0.0000       2.048843        55.7518 
  93   0.0000       2.054226        55.8983 
  94   0.0000       2.054286        55.9000 
  95   0.0000       2.128795        57.9275 
  96   0.0000       2.128982        57.9325 
  97   0.0000       2.188014        59.5389 
  98   0.0000       2.191453        59.6325 
  99   0.0000       2.196670        59.7744 
 100   0.0000       2.196902        59.7807 
 101   0.0000       2.365484        64.3681 
 102   0.0000       2.366109        64.3851 
 103   0.0000       2.367223        64.4154 
 104   0.0000       2.528633        68.8076 
 105   0.0000       2.529803        68.8394 
 106   0.0000       2.575780        70.0905 
 107   0.0000       2.575935        70.0948 
 108   0.0000       2.723350        74.1061 
 109   0.0000       2.736412        74.4615 
 110   0.0000       2.736435        74.4622 
 111   0.0000       2.783660        75.7472 
 112   0.0000       2.783785        75.7507 
 113   0.0000       2.832703        77.0818 
 114   0.0000       3.052939        83.0747 
 115   0.0000       3.444580        93.7318 
 116   0.0000      13.270744       361.1153 
 117   0.0000      13.625974       370.7816 
 118   0.0000      13.632630       370.9627 
 119   0.0000      14.097969       383.6252 
 120   0.0000      14.098227       383.6323 
 121   0.0000      14.536249       395.5514 
 122   0.0000      19.059669       518.6400 

                    ********************************
                    * MULLIKEN POPULATION ANALYSIS *
                    ********************************

-----------------------
MULLIKEN ATOMIC CHARGES
-----------------------
   0 C :   -0.226467
   1 C :   -0.221649
   2 C :   -0.226468
   3 C :   -0.227030
   4 C :   -0.224476
   5 C :   -0.227030
   6 H :    0.226302
   7 H :    0.228259
   8 H :    0.226302
   9 H :    0.223775
  10 H :    0.223066
  11 H :    0.223775
  12 H :    0.305732
  13 H :    0.305732
  14 H :    0.341787
  15 N :   -0.951608
Sum of atomic charges:    0.0000000

--------------------------------
MULLIKEN REDUCED ORBITAL CHARGES
--------------------------------
  0 C s       :     3.248799  s :     3.248799
      pz      :     1.013734  p :     2.938049
      px      :     0.936657
      py      :     0.987658
      dz2     :     0.010456  d :     0.039619
      dxz     :     0.014092
      dyz     :     0.003768
      dx2y2   :     0.005638
      dxy     :     0.005664
  1 C s       :     3.249386  s :     3.249386
      pz      :     0.896913  p :     2.932638
      px      :     1.050970
      py      :     0.984755
      dz2     :     0.012004  d :     0.039625
      dxz     :     0.011018
      dyz     :     0.006879
      dx2y2   :     0.006759
      dxy     :     0.002966
  2 C s       :     3.248799  s :     3.248799
      pz      :     1.013734  p :     2.938050
      px      :     0.936657
      py      :     0.987658
      dz2     :     0.010456  d :     0.039619
      dxz     :     0.014092
      dyz     :     0.003768
      dx2y2   :     0.005638
      dxy     :     0.005664
  3 C s       :     3.247703  s :     3.247703
      pz      :     1.009581  p :     2.939703
      px      :     0.938752
      py      :     0.991369
      dz2     :     0.010416  d :     0.039623
      dxz     :     0.014181
      dyz     :     0.003731
      dx2y2   :     0.005614
      dxy     :     0.005681
  4 C s       :     3.247270  s :     3.247270
      pz      :     0.898798  p :     2.937592
      px      :     1.044590
      py      :     0.994204
      dz2     :     0.012034  d :     0.039614
      dxz     :     0.010936
      dyz     :     0.006967
      dx2y2   :     0.006846
      dxy     :     0.002831
  5 C s       :     3.247704  s :     3.247704
      pz      :     1.009581  p :     2.939703
      px      :     0.938752
      py      :     0.991369
      dz2     :     0.010416  d :     0.039623
      dxz     :     0.014181
      dyz     :     0.003731
      dx2y2   :     0.005614
      dxy     :     0.005681
  6 H s       :     0.773698  s :     0.773698
  7 H s       :     0.771741  s :     0.771741
  8 H s       :     0.773698  s :     0.773698
  9 H s       :     0.776225  s :     0.776225
 10 H s       :     0.776934  s :     0.776934
 11 H s       :     0.776225  s :     0.776225
 12 H s       :     0.694268  s :     0.694268
 13 H s       :     0.694268  s :     0.694268
 14 H s       :     0.658213  s :     0.658213
 15 N s       :     3.678468  s :     3.678468
      pz      :     1.204851  p :     4.239412
      px      :     1.645085
      py      :     1.389477
      dz2     :     0.004162  d :     0.033728
      dxz     :     0.016501
      dyz     :    -0.000333
      dx2y2   :     0.012301
      dxy     :     0.001096


                     *******************************
                     * LOEWDIN POPULATION ANALYSIS *
                     *******************************

----------------------
LOEWDIN ATOMIC CHARGES
----------------------
   0 C :   -0.137538
   1 C :   -0.134175
   2 C :   -0.137538
   3 C :   -0.139814
   4 C :   -0.139376
   5 C :   -0.139814
   6 H :    0.138751
   7 H :    0.140171
   8 H :    0.138751
   9 H :    0.137187
  10 H :    0.136928
  11 H :    0.137187
  12 H :    0.212457
  13 H :    0.212457
  14 H :    0.224668
  15 N :   -0.650303

-------------------------------
LOEWDIN REDUCED ORBITAL CHARGES
-------------------------------
  0 C s       :     2.895089  s :     2.895089
      pz      :     1.084500  p :     3.153000
      px      :     1.084341
      py      :     0.984159
      dz2     :     0.023949  d :     0.089449
      dxz     :     0.033840
      dyz     :     0.006888
      dx2y2   :     0.013119
      dxy     :     0.011653
  1 C s       :     2.895158  s :     2.895158
      pz      :     1.089157  p :     3.149571
      px      :     1.080405
      py      :     0.980008
      dz2     :     0.030810  d :     0.089446
      dxz     :     0.028661
      dyz     :     0.014466
      dx2y2   :     0.011039
      dxy     :     0.004470
  2 C s       :     2.895089  s :     2.895089
      pz      :     1.084500  p :     3.153000
      px      :     1.084341
      py      :     0.984159
      dz2     :     0.023949  d :     0.089449
      dxz     :     0.033840
      dyz     :     0.006888
      dx2y2   :     0.013119
      dxy     :     0.011653
  3 C s       :     2.894949  s :     2.894949
      pz      :     1.082851  p :     3.155356
      px      :     1.085219
      py      :     0.987285
      dz2     :     0.023843  d :     0.089510
      dxz     :     0.034041
      dyz     :     0.006893
      dx2y2   :     0.013054
      dxy     :     0.011679
  4 C s       :     2.894794  s :     2.894794
      pz      :     1.090367  p :     3.155047
      px      :     1.077565
      py      :     0.987115
      dz2     :     0.030884  d :     0.089535
      dxz     :     0.028504
      dyz     :     0.014651
      dx2y2   :     0.011180
      dxy     :     0.004316
  5 C s       :     2.894949  s :     2.894949
      pz      :     1.082851  p :     3.155356
      px      :     1.085219
      py      :     0.987285
      dz2     :     0.023843  d :     0.089510
      dxz     :     0.034041
      dyz     :     0.006893
      dx2y2   :     0.013054
      dxy     :     0.011679
  6 H s       :     0.861249  s :     0.861249
  7 H s       :     0.859829  s :     0.859829
  8 H s       :     0.861249  s :     0.861249
  9 H s       :     0.862813  s :     0.862813
 10 H s       :     0.863072  s :     0.863072
 11 H s       :     0.862813  s :     0.862813
 12 H s       :     0.787543  s :     0.787543
 13 H s       :     0.787543  s :     0.787543
 14 H s       :     0.775332  s :     0.775332
 15 N s       :     3.321146  s :     3.321146
      pz      :     1.229093  p :     4.281150
      px      :     1.654162
      py      :     1.397895
      dz2     :     0.007612  d :     0.048007
      dxz     :     0.022714
      dyz     :     0.000727
      dx2y2   :     0.015706
      dxy     :     0.001247


                      *****************************
                      * MAYER POPULATION ANALYSIS *
                      *****************************

  NA   - Mulliken gross atomic population
  ZA   - Total nuclear charge
  QA   - Mulliken gross atomic charge
  VA   - Mayer's total valence
  BVA  - Mayer's bonded valence
  FA   - Mayer's free valence

  ATOM       NA         ZA         QA         VA         BVA        FA
  0 C      6.2265     6.0000    -0.2265     3.8166     3.8166    -0.0000
  1 C      6.2216     6.0000    -0.2216     3.8175     3.8175     0.0000
  2 C      6.2265     6.0000    -0.2265     3.8166     3.8166    -0.0000
  3 C      6.2270     6.0000    -0.2270     3.8158     3.8158     0.0000
  4 C      6.2245     6.0000    -0.2245     3.8164     3.8164     0.0000
  5 C      6.2270     6.0000    -0.2270     3.8158     3.8158     0.0000
  6 H      0.7737     1.0000     0.2263     0.9102     0.9102    -0.0000
  7 H      0.7717     1.0000     0.2283     0.9098     0.9098     0.0000
  8 H      0.7737     1.0000     0.2263     0.9102     0.9102    -0.0000
  9 H      0.7762     1.0000     0.2238     0.9108     0.9108     0.0000
 10 H      0.7769     1.0000     0.2231     0.9110     0.9110     0.0000
 11 H      0.7762     1.0000     0.2238     0.9108     0.9108    -0.0000
 12 H      0.6943     1.0000     0.3057     0.8740     0.8740     0.0000
 13 H      0.6943     1.0000     0.3057     0.8740     0.8740     0.0000
 14 H      0.6582     1.0000     0.3418     0.8497     0.8497    -0.0000
 15 N      7.9516     7.0000    -0.9516     2.6378     2.6378     0.0000

  Mayer bond orders larger than 0.100000
B(  0-C ,  1-C ) :   1.4245 B(  0-C ,  5-C ) :   1.4237 B(  0-C ,  6-H ) :   0.9185 
B(  1-C ,  2-C ) :   1.4245 B(  1-C ,  7-H ) :   0.9179 B(  2-C ,  3-C ) :   1.4237 
B(  2-C ,  8-H ) :   0.9185 B(  3-C ,  4-C ) :   1.4246 B(  3-C ,  9-H ) :   0.9191 
B(  4-C ,  5-C ) :   1.4246 B(  4-C , 10-H ) :   0.9193 B(  5-C , 11-H ) :   0.9191 
B( 12-H , 15-N ) :   0.8856 B( 13-H , 15-N ) :   0.8856 B( 14-H , 15-N ) :   0.8588 


-------
TIMINGS
-------

Total SCF time: 0 days 0 hours 1 min 19 sec 

Total time                  ....      79.788 sec
Sum of individual times     ....      74.458 sec  ( 93.3%)

Fock matrix formation       ....      63.713 sec  ( 79.9%)
  Split-RI-J                ....       7.051 sec  ( 11.1% of F)
  Chain of spheres X        ....      26.595 sec  ( 41.7% of F)
  XC integration            ....      17.120 sec  ( 26.9% of F)
    Basis function eval.    ....       3.325 sec  ( 19.4% of XC)
    Density eval.           ....       1.873 sec  ( 10.9% of XC)
    XC-Functional eval.     ....       1.462 sec  (  8.5% of XC)
    XC-Potential eval.      ....       1.118 sec  (  6.5% of XC)
Diagonalization             ....       0.310 sec  (  0.4%)
Density matrix formation    ....       0.163 sec  (  0.2%)
Population analysis         ....       0.693 sec  (  0.9%)
Initial guess               ....       0.124 sec  (  0.2%)
Orbital Transformation      ....       0.000 sec  (  0.0%)
Orbital Orthonormalization  ....       0.000 sec  (  0.0%)
DIIS solution               ....       1.502 sec  (  1.9%)
SOSCF solution              ....       1.051 sec  (  1.3%)
Grid generation             ....       6.903 sec  (  8.7%)

Maximum memory used throughout the entire SCF-calculation: 54.0 MB


-------------------------------------------------------------------------------
                          DFT DISPERSION CORRECTION                            
                                                                               
                              DFTD3 V3.1  Rev 1                                
                          USING Becke-Johnson damping                          
-------------------------------------------------------------------------------
The PBEh-3c composite method is recognized
Using three-body term ABC
Active option DFTDOPT                   ...         4   

molecular C6(AA) [au] = 2492.432446 


            DFT-D V3
 parameters
 s6 scaling factor         :     1.0000 
 a1 scaling factor         :     0.4860 
 s8 scaling factor         :     0.0000 
 a2 scaling factor         :     4.5000 
 Damping factor alpha9(ATM):    16.0000 
 ad hoc parameters k1-k3   :    16.0000     1.3333    -4.0000 

 Edisp/kcal,au: -4.919080238143  -0.007839052503 
 E6   /kcal   :  -4.959138686 
 E8   /kcal   :  -0.000000000 
 E6(ABC)      :   0.040058448 
 % E8         :   0.000000000 
 % E6(ABC)    :  -0.814348330 

-------------------------   ----------------
Dispersion correction           -0.007839053
-------------------------   ----------------

------------------   -----------------
gCP correction             0.016827036
------------------   -----------------

-------------------------   --------------------
FINAL SINGLE POINT ENERGY      -288.158013811506
-------------------------   --------------------


                            ***************************************
                            *     ORCA property calculations      *
                            ***************************************

                                    ---------------------
                                    Active property flags
                                    ---------------------
   (+) Dipole Moment


------------------------------------------------------------------------------
                       ORCA ELECTRIC PROPERTIES CALCULATION
------------------------------------------------------------------------------

Dipole Moment Calculation                       ... on
Quadrupole Moment Calculation                   ... off
Polarizability Calculation                      ... off
GBWName                                         ... pbeh-3c.gbw
Electron density                                ... pbeh-3c.scfp
The origin for moment calculation is the CENTER OF MASS  = (-0.131633,  0.422028  0.000000)

-------------
DIPOLE MOMENT
-------------
                                X             Y             Z
Electronic contribution:     -0.57926       4.65027       0.00000
Nuclear contribution   :      1.17310      -4.17759       0.00000
                        -----------------------------------------
Total Dipole Moment    :      0.59384       0.47268       0.00000
                        -----------------------------------------
Magnitude (a.u.)       :      0.75899
Magnitude (Debye)      :      1.92920



--------------------
Rotational spectrum 
--------------------
 
Rotational constants in cm-1:     0.094899     0.063019     0.062543 
Rotational constants in MHz :  2844.988577  1889.273675  1874.983821 

 Dipole components along the rotational axes: 
x,y,z [a.u.] :    -0.472675     0.000000    -0.593840 
x,y,z [Debye]:    -1.201444     0.000000    -1.509422 

 

Timings for individual modules:

Sum of individual times         ...       83.337 sec (=   1.389 min)
GTO integral calculation        ...        2.971 sec (=   0.050 min)   3.6 %
SCF iterations                  ...       80.367 sec (=   1.339 min)  96.4 %
                             ****ORCA TERMINATED NORMALLY****
TOTAL RUN TIME: 0 days 0 hours 1 minutes 25 seconds 107 msec
