
                                 *****************
                                 * O   R   C   A *
                                 *****************

                                            #,                                       
                                            ###                                      
                                            ####                                     
                                            #####                                    
                                            ######                                   
                                           ########,                                 
                                     ,,################,,,,,                         
                               ,,#################################,,                 
                          ,,##########################################,,             
                       ,#########################################, ''#####,          
                    ,#############################################,,   '####,        
                  ,##################################################,,,,####,       
                ,###########''''           ''''###############################       
              ,#####''   ,,,,##########,,,,          '''####'''          '####       
            ,##' ,,,,###########################,,,                        '##       
           ' ,,###''''                  '''############,,,                           
         ,,##''                                '''############,,,,        ,,,,,,###''
      ,#''                                            '''#######################'''  
     '                                                          ''''####''''         
             ,#######,   #######,   ,#######,      ##                                
            ,#'     '#,  ##    ##  ,#'     '#,    #''#        ######   ,####,        
            ##       ##  ##   ,#'  ##            #'  '#       #        #'  '#        
            ##       ##  #######   ##           ,######,      #####,   #    #        
            '#,     ,#'  ##    ##  '#,     ,#' ,#      #,         ##   #,  ,#        
             '#######'   ##     ##  '#######'  #'      '#     #####' # '####'        



                  #######################################################
                  #                        -***-                        #
                  #          Department of theory and spectroscopy      #
                  #    Directorship and core code : Frank Neese         #
                  #        Max Planck Institute fuer Kohlenforschung    #
                  #                Kaiser Wilhelm Platz 1               #
                  #                 D-45470 Muelheim/Ruhr               #
                  #                      Germany                        #
                  #                                                     #
                  #                  All rights reserved                #
                  #                        -***-                        #
                  #######################################################


                         Program Version 5.0.3 -  RELEASE  -


 With contributions from (in alphabetic order):
   Daniel Aravena         : Magnetic Suceptibility
   Michael Atanasov       : Ab Initio Ligand Field Theory (pilot matlab implementation)
   Alexander A. Auer      : GIAO ZORA, VPT2 properties, NMR spectrum
   Ute Becker             : Parallelization
   Giovanni Bistoni       : ED, misc. LED, open-shell LED, HFLD
   Martin Brehm           : Molecular dynamics
   Dmytro Bykov           : SCF Hessian
   Vijay G. Chilkuri      : MRCI spin determinant printing, contributions to CSF-ICE
   Dipayan Datta          : RHF DLPNO-CCSD density
   Achintya Kumar Dutta   : EOM-CC, STEOM-CC
   Dmitry Ganyushin       : Spin-Orbit,Spin-Spin,Magnetic field MRCI
   Miquel Garcia          : C-PCM and meta-GGA Hessian, CC/C-PCM, Gaussian charge scheme
   Yang Guo               : DLPNO-NEVPT2, F12-NEVPT2, CIM, IAO-localization
   Andreas Hansen         : Spin unrestricted coupled pair/coupled cluster methods
   Benjamin Helmich-Paris : MC-RPA, TRAH-SCF, COSX integrals
   Lee Huntington         : MR-EOM, pCC
   Robert Izsak           : Overlap fitted RIJCOSX, COSX-SCS-MP3, EOM
   Marcus Kettner         : VPT2
   Christian Kollmar      : KDIIS, OOCD, Brueckner-CCSD(T), CCSD density, CASPT2, CASPT2-K
   Simone Kossmann        : Meta GGA functionals, TD-DFT gradient, OOMP2, MP2 Hessian
   Martin Krupicka        : Initial AUTO-CI
   Lucas Lang             : DCDCAS
   Marvin Lechner         : AUTO-CI (C++ implementation), FIC-MRCC
   Dagmar Lenk            : GEPOL surface, SMD
   Dimitrios Liakos       : Extrapolation schemes; Compound Job, initial MDCI parallelization
   Dimitrios Manganas     : Further ROCIS development; embedding schemes
   Dimitrios Pantazis     : SARC Basis sets
   Anastasios Papadopoulos: AUTO-CI, single reference methods and gradients
   Taras Petrenko         : DFT Hessian,TD-DFT gradient, ASA, ECA, R-Raman, ABS, FL, XAS/XES, NRVS
   Peter Pinski           : DLPNO-MP2, DLPNO-MP2 Gradient
   Christoph Reimann      : Effective Core Potentials
   Marius Retegan         : Local ZFS, SOC
   Christoph Riplinger    : Optimizer, TS searches, QM/MM, DLPNO-CCSD(T), (RO)-DLPNO pert. Triples
   Tobias Risthaus        : Range-separated hybrids, TD-DFT gradient, RPA, STAB
   Michael Roemelt        : Original ROCIS implementation
   Masaaki Saitow         : Open-shell DLPNO-CCSD energy and density
   Barbara Sandhoefer     : DKH picture change effects
   Avijit Sen             : IP-ROCIS
   Kantharuban Sivalingam : CASSCF convergence, NEVPT2, FIC-MRCI
   Bernardo de Souza      : ESD, SOC TD-DFT
   Georgi Stoychev        : AutoAux, RI-MP2 NMR, DLPNO-MP2 response
   Willem Van den Heuvel  : Paramagnetic NMR
   Boris Wezisla          : Elementary symmetry handling
   Frank Wennmohs         : Technical directorship


 We gratefully acknowledge several colleagues who have allowed us to
 interface, adapt or use parts of their codes:
   Stefan Grimme, W. Hujo, H. Kruse, P. Pracht,  : VdW corrections, initial TS optimization,
                  C. Bannwarth, S. Ehlert          DFT functionals, gCP, sTDA/sTD-DF
   Ed Valeev, F. Pavosevic, A. Kumar             : LibInt (2-el integral package), F12 methods
   Garnet Chan, S. Sharma, J. Yang, R. Olivares  : DMRG
   Ulf Ekstrom                                   : XCFun DFT Library
   Mihaly Kallay                                 : mrcc  (arbitrary order and MRCC methods)
   Jiri Pittner, Ondrej Demel                    : Mk-CCSD
   Frank Weinhold                                : gennbo (NPA and NBO analysis)
   Christopher J. Cramer and Donald G. Truhlar   : smd solvation model
   Lars Goerigk                                  : TD-DFT with DH, B97 family of functionals
   V. Asgeirsson, H. Jonsson                     : NEB implementation
   FAccTs GmbH                                   : IRC, NEB, NEB-TS, DLPNO-Multilevel, CI-OPT
                                                   MM, QMMM, 2- and 3-layer-ONIOM, Crystal-QMMM,
                                                   LR-CPCM, SF, NACMEs, symmetry and pop. for TD-DFT,
                                                   nearIR, NL-DFT gradient (VV10), updates on ESD,
                                                   ML-optimized integration grids
   S Lehtola, MJT Oliveira, MAL Marques          : LibXC Library
   Liviu Ungur et al                             : ANISO software


 Your calculation uses the libint2 library for the computation of 2-el integrals
 For citations please refer to: http://libint.valeyev.net

 Your ORCA version has been built with support for libXC version: 5.1.0
 For citations please refer to: https://tddft.org/programs/libxc/

 This ORCA versions uses:
   CBLAS   interface :  Fast vector & matrix operations
   LAPACKE interface :  Fast linear algebra routines
   SCALAPACK package :  Parallel linear algebra routines
   Shared memory     :  Shared parallel matrices
   BLAS/LAPACK       :  OpenBLAS 0.3.15  USE64BITINT DYNAMIC_ARCH NO_AFFINITY Haswell SINGLE_THREADED
        Core in use  :  Haswell
   Copyright (c) 2011-2014, The OpenBLAS Project




***************************************
The coordinates will be read from file: 26_benI-mSHB.xyz
***************************************


Your calculation utilizes the geometrical counterpoise correction gCP
Please cite in your paper:
H.Kruse, S. Grimme J.Chem.Phys., 136, (2012), 154101 
   

Your calculation utilizes the atom-pairwise dispersion correction
with the Becke-Johnson damping scheme (D3BJ)
Cite in your paper:
S.Grimme, S.Ehrlich, L.Goerigk, J Comput Chem, (2011), 32, 1456–1465 
S.Grimme, J.Antony, S.Ehrlich and H.Krieg, J.Chem.Phys., 132, (2010), 154104 
   

Your calculation employs the composite approach PBEh-3c.
Please cite in your paper:
S. Grimme, J. G. Brandenburg, C. Bannwarth, A. Hansen J.Chem.Phys., 143, (2015), 054107 
   

================================================================================

----- Orbital basis set information -----
Your calculation utilizes the basis: def2-mSVP

----- AuxJ basis set information -----
Your calculation utilizes the auxiliary basis: def2/J
   F. Weigend, Phys. Chem. Chem. Phys. 8, 1057 (2006).

================================================================================
                                        WARNINGS
                       Please study these warnings very carefully!
================================================================================


INFO   : the flag for use of the SHARK integral package has been found!

================================================================================
                                       INPUT FILE
================================================================================
NAME = pbeh-3c.inp
|  1> ! PBEh-3c def2/J TightSCF DefGrid3
|  2> 
|  3> %maxcore 60000
|  4> 
|  5> %pal
|  6> nprocs 4
|  7> end
|  8> 
|  9> *xyzfile 0 1 26_benI-mSHB.xyz
| 10> 
| 11>                          ****END OF INPUT****
================================================================================

                       ****************************
                       * Single Point Calculation *
                       ****************************

---------------------------------
CARTESIAN COORDINATES (ANGSTROEM)
---------------------------------
  S     -3.112683    6.289228    1.226984
  H     -4.328790    5.797771    0.973373
  C     -2.689135    6.703164   -0.489063
  H     -1.684433    7.115457   -0.460266
  H     -2.683867    5.816530   -1.115184
  H     -3.365331    7.451201   -0.890099

----------------------------
CARTESIAN COORDINATES (A.U.)
----------------------------
  NO LB      ZA    FRAG     MASS         X           Y           Z
   0 S    16.0000    0    32.060   -5.882119   11.884918    2.318664
   1 H     1.0000    0     1.008   -8.180227   10.956200    1.839409
   2 C     6.0000    0    12.011   -5.081729   12.667144   -0.924195
   3 H     1.0000    0     1.008   -3.183117   13.446266   -0.869776
   4 H     1.0000    0     1.008   -5.071774   10.991650   -2.107392
   5 H     1.0000    0     1.008   -6.359553   14.080730   -1.682043

--------------------------------
INTERNAL COORDINATES (ANGSTROEM)
--------------------------------
 S      0   0   0     0.000000000000     0.00000000     0.00000000
 H      1   0   0     1.335950336095     0.00000000     0.00000000
 C      1   2   0     1.815366196021    96.70827519     0.00000000
 H      3   1   2     1.086389118904   106.09598357   180.90245042
 H      3   1   2     1.085437200915   111.10976468   298.89202861
 H      3   1   2     1.085186833758   111.16975648    62.61583472

---------------------------
INTERNAL COORDINATES (A.U.)
---------------------------
 S      0   0   0     0.000000000000     0.00000000     0.00000000
 H      1   0   0     2.524580263740     0.00000000     0.00000000
 C      1   2   0     3.430544943258    96.70827519     0.00000000
 H      3   1   2     2.052977909602   106.09598357   180.90245042
 H      3   1   2     2.051179045299   111.10976468   298.89202861
 H      3   1   2     2.050705919940   111.16975648    62.61583472

---------------------
BASIS SET INFORMATION
---------------------
There are 3 groups of distinct atoms

 Group   1 Type S   : 10s7p1d contracted to 4s3p1d pattern {5311/511/1}
 Group   2 Type H   : 4s contracted to 2s pattern {31}
 Group   3 Type C   : 8s4p1d contracted to 4s2p1d pattern {5111/31/1}

Atom   0S    basis set group =>   1
Atom   1H    basis set group =>   2
Atom   2C    basis set group =>   3
Atom   3H    basis set group =>   2
Atom   4H    basis set group =>   2
Atom   5H    basis set group =>   2
---------------------------------
AUXILIARY/J BASIS SET INFORMATION
---------------------------------
There are 3 groups of distinct atoms

 Group   1 Type S   : 14s5p5d2f1g contracted to 8s4p3d1f1g pattern {71111111/2111/311/2/1}
 Group   2 Type H   : 5s2p1d contracted to 3s1p1d pattern {311/2/1}
 Group   3 Type C   : 12s5p4d2f1g contracted to 6s4p3d1f1g pattern {711111/2111/211/2/1}

Atom   0S    basis set group =>   1
Atom   1H    basis set group =>   2
Atom   2C    basis set group =>   3
Atom   3H    basis set group =>   2
Atom   4H    basis set group =>   2
Atom   5H    basis set group =>   2


           ************************************************************
           *        Program running with 4 parallel MPI-processes     *
           *              working on a common directory               *
           ************************************************************
------------------------------------------------------------------------------
                           ORCA GTO INTEGRAL CALCULATION
                           -- RI-GTO INTEGRALS CHOSEN --
------------------------------------------------------------------------------
------------------------------------------------------------------------------
                   ___                                                        
                  /   \      - P O W E R E D   B Y -                         
                 /     \                                                     
                 |  |  |   _    _      __       _____    __    __             
                 |  |  |  | |  | |    /  \     |  _  \  |  |  /  |          
                  \  \/   | |  | |   /    \    | | | |  |  | /  /          
                 / \  \   | |__| |  /  /\  \   | |_| |  |  |/  /          
                |  |  |   |  __  | /  /__\  \  |    /   |      \           
                |  |  |   | |  | | |   __   |  |    \   |  |\   \          
                \     /   | |  | | |  |  |  |  | |\  \  |  | \   \       
                 \___/    |_|  |_| |__|  |__|  |_| \__\ |__|  \__/        
                                                                              
                      - O R C A' S   B I G   F R I E N D -                    
                                      &                                       
                       - I N T E G R A L  F E E D E R -                       
                                                                              
 v1 FN, 2020, v2 2021                                                         
------------------------------------------------------------------------------


Reading SHARK input file pbeh-3c.SHARKINP.tmp ... ok
----------------------
SHARK INTEGRAL PACKAGE
----------------------

Number of atoms                             ...      6
Number of basis functions                   ...     41
Number of shells                            ...     23
Maximum angular momentum                    ...      2
Integral batch strategy                     ... SHARK/LIBINT Hybrid
RI-J (if used) integral strategy            ... SPLIT-RIJ (Revised 2003 algorithm where possible)
Printlevel                                  ...      1
Contraction scheme used                     ... SEGMENTED contraction
Coulomb Range Separation                    ... NOT USED
Exchange Range Separation                   ... NOT USED
Finite Nucleus Model                        ... NOT USED
Auxiliary Coulomb fitting basis             ... AVAILABLE
   # of basis functions in Aux-J            ...    144
   # of shells in Aux-J                     ...     52
   Maximum angular momentum in Aux-J        ...      4
Auxiliary J/K fitting basis                 ... NOT available
Auxiliary Correlation fitting basis         ... NOT available
Auxiliary 'external' fitting basis          ... NOT available
Integral threshold                          ...     2.500000e-11
Primitive cut-off                           ...     2.500000e-12
Primitive pair pre-selection threshold      ...     2.500000e-12

Calculating pre-screening integrals         ... done (  0.0 sec) Dimension = 23
Organizing shell pair data                  ... done (  0.2 sec)
Shell pair information
Total number of shell pairs                 ...       276
Shell pairs after pre-screening             ...       274
Total number of primitive shell pairs       ...      1176
Primitive shell pairs kept                  ...       968
          la=0 lb=0:    134 shell pairs
          la=1 lb=0:     80 shell pairs
          la=1 lb=1:     15 shell pairs
          la=2 lb=0:     32 shell pairs
          la=2 lb=1:     10 shell pairs
          la=2 lb=2:      3 shell pairs

Calculating one electron integrals          ... done (  0.0 sec)
Calculating RI/J V-Matrix + Cholesky decomp.... done (  0.9 sec)
Calculating Nuclear repulsion               ... done (  0.1 sec) ENN=     56.447654115376 Eh

SHARK setup successfully completed in   2.3 seconds

Maximum memory used throughout the entire GTOINT-calculation: 9.0 MB


           ************************************************************
           *        Program running with 4 parallel MPI-processes     *
           *              working on a common directory               *
           ************************************************************
-------------------------------------------------------------------------------
                                 ORCA SCF
-------------------------------------------------------------------------------

------------
SCF SETTINGS
------------
Hamiltonian:
 Density Functional     Method          .... DFT(GTOs)
 Exchange Functional    Exchange        .... PBE
   PBE kappa parameter   XKappa         ....  1.024500
   PBE mue parameter    XMuePBE         ....  0.123457
 Correlation Functional Correlation     .... PBE
   PBE beta parameter  CBetaPBE         ....  0.030000
 LDA part of GGA corr.  LDAOpt          .... PW91-LDA
 Gradients option       PostSCFGGA      .... off
 Hybrid DFT is turned on
   Fraction HF Exchange ScalHFX         ....  0.420000
   Scaling of DF-GGA-X  ScalDFX         ....  0.580000
   Scaling of DF-GGA-C  ScalDFC         ....  1.000000
   Scaling of DF-LDA-C  ScalLDAC        ....  1.000000
   Perturbative correction              ....  0.000000
   Density functional embedding theory  .... OFF
 RI-approximation to the Coulomb term is turned on
   Number of AuxJ basis functions       .... 144
   RIJ-ON(X) (HFX calculated with O(N)) .... on
   Number of AuxJ basis functions       .... 144
   RIJ-COSX (HFX calculated with COS-X)).... on


General Settings:
 Integral files         IntName         .... pbeh-3c
 Hartree-Fock type      HFTyp           .... RHF
 Total Charge           Charge          ....    0
 Multiplicity           Mult            ....    1
 Number of Electrons    NEL             ....   26
 Basis Dimension        Dim             ....   41
 Nuclear Repulsion      ENuc            ....     56.4476541154 Eh

Convergence Acceleration:
 DIIS                   CNVDIIS         .... on
   Start iteration      DIISMaxIt       ....    12
   Startup error        DIISStart       ....  0.200000
   # of expansion vecs  DIISMaxEq       ....     5
   Bias factor          DIISBfac        ....   1.050
   Max. coefficient     DIISMaxC        ....  10.000
 Trust-Rad. Augm. Hess. CNVTRAH         .... auto
   Auto Start mean grad. ratio tolernc. ....  1.125000
   Auto Start start iteration           ....    20
   Auto Start num. interpolation iter.  ....    10
   Max. Number of Micro iterations      ....    16
   Max. Number of Macro iterations      .... Maxiter - #DIIS iter
   Number of Davidson start vectors     ....     2
   Converg. threshold I  (grad. norm)   ....   1.000e-05
   Converg. threshold II (energy diff.) ....   1.000e-08
   Grad. Scal. Fac. for Micro threshold ....   0.100
   Minimum threshold for Micro iter.    ....   0.010
   NR start threshold (gradient norm)   ....   0.001
   Initial trust radius                 ....   0.400
   Minimum AH scaling param. (alpha)    ....   1.000
   Maximum AH scaling param. (alpha)    .... 1000.000
   Orbital update algorithm             .... Taylor
   White noise on init. David. guess    .... on
   Maximum white noise                  ....   0.010
   Quad. conv. algorithm                .... NR
   COSX micro iterations for RIJONX calc.... off
 SOSCF                  CNVSOSCF        .... on
   Start iteration      SOSCFMaxIt      ....   150
   Startup grad/error   SOSCFStart      ....  0.003300
 Level Shifting         CNVShift        .... on
   Level shift para.    LevelShift      ....    0.2500
   Turn off err/grad.   ShiftErr        ....    0.0010
 Zerner damping         CNVZerner       .... off
 Static damping         CNVDamp         .... on
   Fraction old density DampFac         ....    0.7000
   Max. Damping (<1)    DampMax         ....    0.9800
   Min. Damping (>=0)   DampMin         ....    0.0000
   Turn off err/grad.   DampErr         ....    0.1000
 Fernandez-Rico         CNVRico         .... off

SCF Procedure:
 Maximum # iterations   MaxIter         ....   125
 SCF integral mode      SCFMode         .... Direct
   Integral package                     .... SHARK and LIBINT hybrid scheme
 Reset frequency        DirectResetFreq ....    20
 Integral Threshold     Thresh          ....  2.500e-11 Eh
 Primitive CutOff       TCut            ....  2.500e-12 Eh

Convergence Tolerance:
 Convergence Check Mode ConvCheckMode   .... Total+1el-Energy
 Convergence forced     ConvForced      .... 0
 Energy Change          TolE            ....  1.000e-08 Eh
 1-El. energy change                    ....  1.000e-05 Eh
 Orbital Gradient       TolG            ....  1.000e-05
 Orbital Rotation angle TolX            ....  1.000e-05
 DIIS Error             TolErr          ....  5.000e-07


Diagonalization of the overlap matrix:
Smallest eigenvalue                        ... 1.551e-02
Time for diagonalization                   ...    0.026 sec
Threshold for overlap eigenvalues          ... 1.000e-08
Number of eigenvalues below threshold      ... 0
Time for construction of square roots      ...    0.094 sec
Total time needed                          ...    0.120 sec

--------------------------------
INITIAL GUESS: MINIMAL BASIS EHT
--------------------------------
The minimal basis has 18 functions
EHT matrix was diagonalized
Basis set overlap was calculated now projecting the orbitals
Using GuessMode=FMatrix for the initial guess
C*T matrix was formed
Effective Fockian was calculated
Effective Fockian was diagonalized
Initial density was built
                      ------------------
                      INITIAL GUESS DONE
                      ------------------
-------------------
DFT GRID GENERATION
-------------------

General Integration Accuracy     IntAcc      ... 4.959
Radial Grid Type                 RadialGrid  ... OptM3 with GC (2021)
Angular Grid (max. ang.)         AngularGrid ... 6 (Lebedev-590)
Angular grid pruning method      GridPruning ... 4 (adaptive)
Weight generation scheme         WeightScheme... Becke
Basis function cutoff            BFCut       ... 1.0000e-11
Integration weight cutoff        WCut        ... 1.0000e-14
Angular grids for H and He will be reduced by one unit
Partially contracted basis set               ... off
Rotationally invariant grid construction     ... off

Total number of grid points                  ...    66721
Total number of batches                      ...     1045
Average number of points per batch           ...       63
Average number of grid points per atom       ...    11120
Time for grid setup =    1.199 sec

--------------------
COSX GRID GENERATION
--------------------

GRIDX 1
-------
General Integration Accuracy     IntAcc      ... 4.020
Radial Grid Type                 RadialGrid  ... OptM3 with GC (2021)
Angular Grid (max. ang.)         AngularGrid ... 2 (Lebedev-110)
Angular grid pruning method      GridPruning ... 4 (adaptive)
Weight generation scheme         WeightScheme... Becke
Basis function cutoff            BFCut       ... 1.0000e-11
Integration weight cutoff        WCut        ... 1.0000e-14
Angular grids for H and He will be reduced by one unit
Partially contracted basis set               ... on
Rotationally invariant grid construction     ... off

Total number of grid points                  ...     7027
Total number of batches                      ...      112
Average number of points per batch           ...       62
Average number of grid points per atom       ...     1171
UseSFitting                                  ... on

GRIDX 2
-------
General Integration Accuracy     IntAcc      ... 4.338
Radial Grid Type                 RadialGrid  ... OptM3 with GC (2021)
Angular Grid (max. ang.)         AngularGrid ... 3 (Lebedev-194)
Angular grid pruning method      GridPruning ... 4 (adaptive)
Weight generation scheme         WeightScheme... Becke
Basis function cutoff            BFCut       ... 1.0000e-11
Integration weight cutoff        WCut        ... 1.0000e-14
Angular grids for H and He will be reduced by one unit
Partially contracted basis set               ... on
Rotationally invariant grid construction     ... off

Total number of grid points                  ...    16057
Total number of batches                      ...      255
Average number of points per batch           ...       62
Average number of grid points per atom       ...     2676
UseSFitting                                  ... on

GRIDX 3
-------
General Integration Accuracy     IntAcc      ... 4.871
Radial Grid Type                 RadialGrid  ... OptM3 with GC (2021)
Angular Grid (max. ang.)         AngularGrid ... 4 (Lebedev-302)
Angular grid pruning method      GridPruning ... 4 (adaptive)
Weight generation scheme         WeightScheme... Becke
Basis function cutoff            BFCut       ... 1.0000e-11
Integration weight cutoff        WCut        ... 1.0000e-14
Angular grids for H and He will be reduced by one unit
Partially contracted basis set               ... on
Rotationally invariant grid construction     ... off

Total number of grid points                  ...    31868
Total number of batches                      ...      501
Average number of points per batch           ...       63
Average number of grid points per atom       ...     5311
UseSFitting                                  ... on

Time for X-Grid setup             =    1.846 sec

--------------
SCF ITERATIONS
--------------
ITER       Energy         Delta-E        Max-DP      RMS-DP      [F,P]     Damp
               ***  Starting incremental Fock matrix formation  ***
  0   -437.7749207685   0.000000000000 0.16827910  0.00996787  0.3717429 0.7000
  1   -437.8949357615  -0.120014992992 0.11120291  0.00673077  0.2630904 0.7000
                               ***Turning on DIIS***
  2   -437.9751197451  -0.080183983653 0.07243914  0.00449188  0.1854200 0.7000
  3   -438.0305554444  -0.055435699331 0.04946918  0.00309689  0.1303797 0.7000
  4   -438.0695832517  -0.039027807296 0.13717379  0.00773489  0.0910688 0.0000
  5   -438.1624358163  -0.092852564558 0.00882846  0.00062751  0.0049621 0.0000
                      *** Initiating the SOSCF procedure ***
                           *** Shutting down DIIS ***
                      *** Re-Reading the Fockian *** 
                      *** Removing any level shift *** 
ITER      Energy       Delta-E        Grad      Rot      Max-DP    RMS-DP
  6   -438.16254882  -0.0001130008  0.001014  0.001014  0.004763  0.000217
               *** Restarting incremental Fock matrix formation ***
  7   -438.16257022  -0.0000213994  0.000639  0.001288  0.001585  0.000142
  8   -438.16257363  -0.0000034160  0.000120  0.000362  0.000558  0.000051
  9   -438.16257376  -0.0000001248  0.000114  0.000113  0.000197  0.000017
 10   -438.16257391  -0.0000001509  0.000005  0.000011  0.000032  0.000002
                  ***Gradient check signals convergence***
              ***Rediagonalizing the Fockian in SOSCF/NRSCF***

               *****************************************************
               *                     SUCCESS                       *
               *           SCF CONVERGED AFTER  11 CYCLES          *
               *****************************************************

Old exchange energy                            =    -13.277842628 Eh
New exchange energy                            =    -13.277837860 Eh
Exchange energy change after final integration =      0.000004768 Eh
Total energy after final integration           =   -438.162569140 Eh
Final COS-X integration done in                =     0.780 sec

----------------
TOTAL SCF ENERGY
----------------

Total Energy       :         -438.16256914 Eh          -11923.00966 eV

Components:
Nuclear Repulsion  :           56.44765412 Eh            1536.01876 eV
Electronic Energy  :         -494.61022326 Eh          -13459.02842 eV
One Electron Energy:         -715.48135969 Eh          -19469.23759 eV
Two Electron Energy:          220.87113643 Eh            6010.20918 eV
Max COSX asymmetry :            0.00000052 Eh               0.00001 eV

Virial components:
Potential Energy   :         -875.50664552 Eh          -23823.74700 eV
Kinetic Energy     :          437.34407638 Eh           11900.73734 eV
Virial Ratio       :            2.00187151


DFT components:
N(Alpha)           :       13.000000275998 electrons
N(Beta)            :       13.000000275998 electrons
N(Total)           :       26.000000551996 electrons
E(X)               :      -17.689004492607 Eh       
E(C)               :       -1.227958593837 Eh       
E(XC)              :      -18.916963086443 Eh       
DFET-embed. en.    :        0.000000000000 Eh       

---------------
SCF CONVERGENCE
---------------

  Last Energy change         ...    1.1403e-10  Tolerance :   1.0000e-08
  Last MAX-Density change    ...    2.2204e-15  Tolerance :   1.0000e-07
  Last RMS-Density change    ...    1.2139e-16  Tolerance :   5.0000e-09
  Last Orbital Gradient      ...    2.4064e-06  Tolerance :   1.0000e-05
  Last Orbital Rotation      ...    2.6116e-06  Tolerance :   1.0000e-05

             **** THE GBW FILE WAS UPDATED (pbeh-3c.gbw) ****
             **** DENSITY pbeh-3c.scfp WAS UPDATED ****
             **** ENERGY FILE WAS UPDATED (pbeh-3c.en.tmp) ****
             **** THE GBW FILE WAS UPDATED (pbeh-3c.gbw) ****
             **** DENSITY pbeh-3c.scfp WAS UPDATED ****
----------------
ORBITAL ENERGIES
----------------

  NO   OCC          E(Eh)            E(eV) 
   0   2.0000     -89.573901     -2437.4298 
   1   2.0000     -10.464687      -284.7586 
   2   2.0000      -8.215215      -223.5474 
   3   2.0000      -6.106345      -166.1621 
   4   2.0000      -6.103223      -166.0772 
   5   2.0000      -6.097189      -165.9129 
   6   2.0000      -0.867146       -23.5962 
   7   2.0000      -0.720136       -19.5959 
   8   2.0000      -0.508542       -13.8381 
   9   2.0000      -0.490054       -13.3350 
  10   2.0000      -0.443626       -12.0717 
  11   2.0000      -0.378399       -10.2968 
  12   2.0000      -0.278880        -7.5887 
  13   0.0000       0.075805         2.0628 
  14   0.0000       0.117651         3.2014 
  15   0.0000       0.176060         4.7908 
  16   0.0000       0.192500         5.2382 
  17   0.0000       0.200837         5.4651 
  18   0.0000       0.458495        12.4763 
  19   0.0000       0.473451        12.8833 
  20   0.0000       0.482172        13.1206 
  21   0.0000       0.498991        13.5782 
  22   0.0000       0.622783        16.9468 
  23   0.0000       0.720011        19.5925 
  24   0.0000       0.750045        20.4098 
  25   0.0000       0.750741        20.4287 
  26   0.0000       0.774285        21.0694 
  27   0.0000       0.846607        23.0374 
  28   0.0000       0.895198        24.3596 
  29   0.0000       0.969510        26.3817 
  30   0.0000       1.026263        27.9260 
  31   0.0000       1.028750        27.9937 
  32   0.0000       1.086379        29.5619 
  33   0.0000       1.242450        33.8088 
  34   0.0000       1.287492        35.0344 
  35   0.0000       1.772066        48.2204 
  36   0.0000       1.794103        48.8200 
  37   0.0000       2.198338        59.8198 
  38   0.0000       2.289153        62.2910 
  39   0.0000       2.298064        62.5335 
  40   0.0000      13.679761       372.2452 

                    ********************************
                    * MULLIKEN POPULATION ANALYSIS *
                    ********************************

-----------------------
MULLIKEN ATOMIC CHARGES
-----------------------
   0 S :   -0.180454
   1 H :    0.173578
   2 C :   -0.750553
   3 H :    0.257897
   4 H :    0.249690
   5 H :    0.249841
Sum of atomic charges:   -0.0000000

--------------------------------
MULLIKEN REDUCED ORBITAL CHARGES
--------------------------------
  0 S s       :     5.869336  s :     5.869336
      pz      :     3.174149  p :    10.230837
      px      :     3.250329
      py      :     3.806359
      dz2     :     0.033046  d :     0.080281
      dxz     :     0.011919
      dyz     :     0.009277
      dx2y2   :     0.013563
      dxy     :     0.012476
  1 H s       :     0.826422  s :     0.826422
  2 C s       :     3.431951  s :     3.431951
      pz      :     0.957702  p :     3.280771
      px      :     1.164838
      py      :     1.158231
      dz2     :     0.008479  d :     0.037831
      dxz     :     0.003951
      dyz     :     0.011908
      dx2y2   :     0.005996
      dxy     :     0.007497
  3 H s       :     0.742103  s :     0.742103
  4 H s       :     0.750310  s :     0.750310
  5 H s       :     0.750159  s :     0.750159


                     *******************************
                     * LOEWDIN POPULATION ANALYSIS *
                     *******************************

----------------------
LOEWDIN ATOMIC CHARGES
----------------------
   0 S :   -0.031675
   1 H :    0.095111
   2 C :   -0.470959
   3 H :    0.143083
   4 H :    0.132291
   5 H :    0.132149

-------------------------------
LOEWDIN REDUCED ORBITAL CHARGES
-------------------------------
  0 S s       :     5.652390  s :     5.652390
      pz      :     3.251849  p :    10.285620
      px      :     3.242173
      py      :     3.791598
      dz2     :     0.040097  d :     0.093665
      dxz     :     0.013610
      dyz     :     0.011224
      dx2y2   :     0.014810
      dxy     :     0.013923
  1 H s       :     0.904889  s :     0.904889
  2 C s       :     3.015406  s :     3.015406
      pz      :     1.053285  p :     3.388641
      px      :     1.167959
      py      :     1.167397
      dz2     :     0.016729  d :     0.066912
      dxz     :     0.007207
      dyz     :     0.021699
      dx2y2   :     0.009376
      dxy     :     0.011901
  3 H s       :     0.856917  s :     0.856917
  4 H s       :     0.867709  s :     0.867709
  5 H s       :     0.867851  s :     0.867851


                      *****************************
                      * MAYER POPULATION ANALYSIS *
                      *****************************

  NA   - Mulliken gross atomic population
  ZA   - Total nuclear charge
  QA   - Mulliken gross atomic charge
  VA   - Mayer's total valence
  BVA  - Mayer's bonded valence
  FA   - Mayer's free valence

  ATOM       NA         ZA         QA         VA         BVA        FA
  0 S     16.1805    16.0000    -0.1805     1.9556     1.9556    -0.0000
  1 H      0.8264     1.0000     0.1736     0.9333     0.9333    -0.0000
  2 C      6.7506     6.0000    -0.7506     3.7345     3.7345    -0.0000
  3 H      0.7421     1.0000     0.2579     0.8929     0.8929     0.0000
  4 H      0.7503     1.0000     0.2497     0.8898     0.8898    -0.0000
  5 H      0.7502     1.0000     0.2498     0.8896     0.8896    -0.0000

  Mayer bond orders larger than 0.100000
B(  0-S ,  1-H ) :   0.9250 B(  0-S ,  2-C ) :   1.0291 B(  2-C ,  3-H ) :   0.9060 
B(  2-C ,  4-H ) :   0.8998 B(  2-C ,  5-H ) :   0.8995 

-------
TIMINGS
-------

Total SCF time: 0 days 0 hours 0 min 48 sec 

Total time                  ....      48.618 sec
Sum of individual times     ....      40.613 sec  ( 83.5%)

Fock matrix formation       ....      32.989 sec  ( 67.9%)
  Split-RI-J                ....       3.624 sec  ( 11.0% of F)
  Chain of spheres X        ....       5.338 sec  ( 16.2% of F)
  XC integration            ....       9.538 sec  ( 28.9% of F)
    Basis function eval.    ....       0.627 sec  (  6.6% of XC)
    Density eval.           ....       0.480 sec  (  5.0% of XC)
    XC-Functional eval.     ....       0.615 sec  (  6.4% of XC)
    XC-Potential eval.      ....       0.160 sec  (  1.7% of XC)
Diagonalization             ....       1.062 sec  (  2.2%)
Density matrix formation    ....       0.048 sec  (  0.1%)
Population analysis         ....       1.476 sec  (  3.0%)
Initial guess               ....       0.002 sec  (  0.0%)
Orbital Transformation      ....       0.000 sec  (  0.0%)
Orbital Orthonormalization  ....       0.000 sec  (  0.0%)
DIIS solution               ....       0.963 sec  (  2.0%)
SOSCF solution              ....       1.027 sec  (  2.1%)
Grid generation             ....       3.045 sec  (  6.3%)

Maximum memory used throughout the entire SCF-calculation: 45.1 MB


-------------------------------------------------------------------------------
                          DFT DISPERSION CORRECTION                            
                                                                               
                              DFTD3 V3.1  Rev 1                                
                          USING Becke-Johnson damping                          
-------------------------------------------------------------------------------
The PBEh-3c composite method is recognized
Using three-body term ABC
Active option DFTDOPT                   ...         4   

molecular C6(AA) [au] = 505.431346 


            DFT-D V3
 parameters
 s6 scaling factor         :     1.0000 
 a1 scaling factor         :     0.4860 
 s8 scaling factor         :     0.0000 
 a2 scaling factor         :     4.5000 
 Damping factor alpha9(ATM):    16.0000 
 ad hoc parameters k1-k3   :    16.0000     1.3333    -4.0000 

 Edisp/kcal,au: -0.992382005491  -0.001581461222 
 E6   /kcal   :  -0.992574617 
 E8   /kcal   :  -0.000000000 
 E6(ABC)      :   0.000192611 
 % E8         :   0.000000000 
 % E6(ABC)    :  -0.019408959 

-------------------------   ----------------
Dispersion correction           -0.001581461
-------------------------   ----------------

------------------   -----------------
gCP correction             0.006636890
------------------   -----------------

-------------------------   --------------------
FINAL SINGLE POINT ENERGY      -438.157513710990
-------------------------   --------------------


                            ***************************************
                            *     ORCA property calculations      *
                            ***************************************

                                    ---------------------
                                    Active property flags
                                    ---------------------
   (+) Dipole Moment


------------------------------------------------------------------------------
                       ORCA ELECTRIC PROPERTIES CALCULATION
------------------------------------------------------------------------------

Dipole Moment Calculation                       ... on
Quadrupole Moment Calculation                   ... off
Polarizability Calculation                      ... off
GBWName                                         ... pbeh-3c.gbw
Electron density                                ... pbeh-3c.scfp
The origin for moment calculation is the CENTER OF MASS  = (-5.666890, 12.120786  1.255504)

-------------
DIPOLE MOMENT
-------------
                                X             Y             Z
Electronic contribution:     -0.13751      -0.49702       3.27363
Nuclear contribution   :     -0.05981       0.49595      -3.90945
                        -----------------------------------------
Total Dipole Moment    :     -0.19732      -0.00107      -0.63581
                        -----------------------------------------
Magnitude (a.u.)       :      0.66573
Magnitude (Debye)      :      1.69215



--------------------
Rotational spectrum 
--------------------
 
Rotational constants in cm-1:     3.458545     0.432107     0.414457 
Rotational constants in MHz : 103684.558901 12954.256732 12425.121918 

 Dipole components along the rotational axes: 
x,y,z [a.u.] :    -0.543229    -0.384829    -0.001518 
x,y,z [Debye]:    -1.380780    -0.978158    -0.003859 

 

Timings for individual modules:

Sum of individual times         ...       52.632 sec (=   0.877 min)
GTO integral calculation        ...        3.094 sec (=   0.052 min)   5.9 %
SCF iterations                  ...       49.538 sec (=   0.826 min)  94.1 %
                             ****ORCA TERMINATED NORMALLY****
TOTAL RUN TIME: 0 days 0 hours 0 minutes 58 seconds 613 msec
