
                                 *****************
                                 * O   R   C   A *
                                 *****************

                                            #,                                       
                                            ###                                      
                                            ####                                     
                                            #####                                    
                                            ######                                   
                                           ########,                                 
                                     ,,################,,,,,                         
                               ,,#################################,,                 
                          ,,##########################################,,             
                       ,#########################################, ''#####,          
                    ,#############################################,,   '####,        
                  ,##################################################,,,,####,       
                ,###########''''           ''''###############################       
              ,#####''   ,,,,##########,,,,          '''####'''          '####       
            ,##' ,,,,###########################,,,                        '##       
           ' ,,###''''                  '''############,,,                           
         ,,##''                                '''############,,,,        ,,,,,,###''
      ,#''                                            '''#######################'''  
     '                                                          ''''####''''         
             ,#######,   #######,   ,#######,      ##                                
            ,#'     '#,  ##    ##  ,#'     '#,    #''#        ######   ,####,        
            ##       ##  ##   ,#'  ##            #'  '#       #        #'  '#        
            ##       ##  #######   ##           ,######,      #####,   #    #        
            '#,     ,#'  ##    ##  '#,     ,#' ,#      #,         ##   #,  ,#        
             '#######'   ##     ##  '#######'  #'      '#     #####' # '####'        



                  #######################################################
                  #                        -***-                        #
                  #          Department of theory and spectroscopy      #
                  #    Directorship and core code : Frank Neese         #
                  #        Max Planck Institute fuer Kohlenforschung    #
                  #                Kaiser Wilhelm Platz 1               #
                  #                 D-45470 Muelheim/Ruhr               #
                  #                      Germany                        #
                  #                                                     #
                  #                  All rights reserved                #
                  #                        -***-                        #
                  #######################################################


                         Program Version 5.0.3 -  RELEASE  -


 With contributions from (in alphabetic order):
   Daniel Aravena         : Magnetic Suceptibility
   Michael Atanasov       : Ab Initio Ligand Field Theory (pilot matlab implementation)
   Alexander A. Auer      : GIAO ZORA, VPT2 properties, NMR spectrum
   Ute Becker             : Parallelization
   Giovanni Bistoni       : ED, misc. LED, open-shell LED, HFLD
   Martin Brehm           : Molecular dynamics
   Dmytro Bykov           : SCF Hessian
   Vijay G. Chilkuri      : MRCI spin determinant printing, contributions to CSF-ICE
   Dipayan Datta          : RHF DLPNO-CCSD density
   Achintya Kumar Dutta   : EOM-CC, STEOM-CC
   Dmitry Ganyushin       : Spin-Orbit,Spin-Spin,Magnetic field MRCI
   Miquel Garcia          : C-PCM and meta-GGA Hessian, CC/C-PCM, Gaussian charge scheme
   Yang Guo               : DLPNO-NEVPT2, F12-NEVPT2, CIM, IAO-localization
   Andreas Hansen         : Spin unrestricted coupled pair/coupled cluster methods
   Benjamin Helmich-Paris : MC-RPA, TRAH-SCF, COSX integrals
   Lee Huntington         : MR-EOM, pCC
   Robert Izsak           : Overlap fitted RIJCOSX, COSX-SCS-MP3, EOM
   Marcus Kettner         : VPT2
   Christian Kollmar      : KDIIS, OOCD, Brueckner-CCSD(T), CCSD density, CASPT2, CASPT2-K
   Simone Kossmann        : Meta GGA functionals, TD-DFT gradient, OOMP2, MP2 Hessian
   Martin Krupicka        : Initial AUTO-CI
   Lucas Lang             : DCDCAS
   Marvin Lechner         : AUTO-CI (C++ implementation), FIC-MRCC
   Dagmar Lenk            : GEPOL surface, SMD
   Dimitrios Liakos       : Extrapolation schemes; Compound Job, initial MDCI parallelization
   Dimitrios Manganas     : Further ROCIS development; embedding schemes
   Dimitrios Pantazis     : SARC Basis sets
   Anastasios Papadopoulos: AUTO-CI, single reference methods and gradients
   Taras Petrenko         : DFT Hessian,TD-DFT gradient, ASA, ECA, R-Raman, ABS, FL, XAS/XES, NRVS
   Peter Pinski           : DLPNO-MP2, DLPNO-MP2 Gradient
   Christoph Reimann      : Effective Core Potentials
   Marius Retegan         : Local ZFS, SOC
   Christoph Riplinger    : Optimizer, TS searches, QM/MM, DLPNO-CCSD(T), (RO)-DLPNO pert. Triples
   Tobias Risthaus        : Range-separated hybrids, TD-DFT gradient, RPA, STAB
   Michael Roemelt        : Original ROCIS implementation
   Masaaki Saitow         : Open-shell DLPNO-CCSD energy and density
   Barbara Sandhoefer     : DKH picture change effects
   Avijit Sen             : IP-ROCIS
   Kantharuban Sivalingam : CASSCF convergence, NEVPT2, FIC-MRCI
   Bernardo de Souza      : ESD, SOC TD-DFT
   Georgi Stoychev        : AutoAux, RI-MP2 NMR, DLPNO-MP2 response
   Willem Van den Heuvel  : Paramagnetic NMR
   Boris Wezisla          : Elementary symmetry handling
   Frank Wennmohs         : Technical directorship


 We gratefully acknowledge several colleagues who have allowed us to
 interface, adapt or use parts of their codes:
   Stefan Grimme, W. Hujo, H. Kruse, P. Pracht,  : VdW corrections, initial TS optimization,
                  C. Bannwarth, S. Ehlert          DFT functionals, gCP, sTDA/sTD-DF
   Ed Valeev, F. Pavosevic, A. Kumar             : LibInt (2-el integral package), F12 methods
   Garnet Chan, S. Sharma, J. Yang, R. Olivares  : DMRG
   Ulf Ekstrom                                   : XCFun DFT Library
   Mihaly Kallay                                 : mrcc  (arbitrary order and MRCC methods)
   Jiri Pittner, Ondrej Demel                    : Mk-CCSD
   Frank Weinhold                                : gennbo (NPA and NBO analysis)
   Christopher J. Cramer and Donald G. Truhlar   : smd solvation model
   Lars Goerigk                                  : TD-DFT with DH, B97 family of functionals
   V. Asgeirsson, H. Jonsson                     : NEB implementation
   FAccTs GmbH                                   : IRC, NEB, NEB-TS, DLPNO-Multilevel, CI-OPT
                                                   MM, QMMM, 2- and 3-layer-ONIOM, Crystal-QMMM,
                                                   LR-CPCM, SF, NACMEs, symmetry and pop. for TD-DFT,
                                                   nearIR, NL-DFT gradient (VV10), updates on ESD,
                                                   ML-optimized integration grids
   S Lehtola, MJT Oliveira, MAL Marques          : LibXC Library
   Liviu Ungur et al                             : ANISO software


 Your calculation uses the libint2 library for the computation of 2-el integrals
 For citations please refer to: http://libint.valeyev.net

 Your ORCA version has been built with support for libXC version: 5.1.0
 For citations please refer to: https://tddft.org/programs/libxc/

 This ORCA versions uses:
   CBLAS   interface :  Fast vector & matrix operations
   LAPACKE interface :  Fast linear algebra routines
   SCALAPACK package :  Parallel linear algebra routines
   Shared memory     :  Shared parallel matrices
   BLAS/LAPACK       :  OpenBLAS 0.3.15  USE64BITINT DYNAMIC_ARCH NO_AFFINITY Haswell SINGLE_THREADED
        Core in use  :  Haswell
   Copyright (c) 2011-2014, The OpenBLAS Project




***************************************
The coordinates will be read from file: i4p.xyz
***************************************


Your calculation utilizes the geometrical counterpoise correction gCP
Please cite in your paper:
H.Kruse, S. Grimme J.Chem.Phys., 136, (2012), 154101 
   

Your calculation utilizes the atom-pairwise dispersion correction
with the Becke-Johnson damping scheme (D3BJ)
Cite in your paper:
S.Grimme, S.Ehrlich, L.Goerigk, J Comput Chem, (2011), 32, 1456–1465 
S.Grimme, J.Antony, S.Ehrlich and H.Krieg, J.Chem.Phys., 132, (2010), 154104 
   

Your calculation employs the composite approach PBEh-3c.
Please cite in your paper:
S. Grimme, J. G. Brandenburg, C. Bannwarth, A. Hansen J.Chem.Phys., 143, (2015), 054107 
   

================================================================================

----- Orbital basis set information -----
Your calculation utilizes the basis: def2-mSVP

----- AuxJ basis set information -----
Your calculation utilizes the auxiliary basis: def2/J
   F. Weigend, Phys. Chem. Chem. Phys. 8, 1057 (2006).

================================================================================
                                        WARNINGS
                       Please study these warnings very carefully!
================================================================================


INFO   : the flag for use of the SHARK integral package has been found!

================================================================================
                                       INPUT FILE
================================================================================
NAME = pbeh-3c.inp
|  1> ! PBEh-3c def2/J TightSCF DefGrid3
|  2> 
|  3> %maxcore 60000
|  4> 
|  5> %pal
|  6> nprocs 4
|  7> end
|  8> 
|  9> *xyzfile 0 1 i4p.xyz
| 10> 
| 11>                          ****END OF INPUT****
================================================================================

                       ****************************
                       * Single Point Calculation *
                       ****************************

---------------------------------
CARTESIAN COORDINATES (ANGSTROEM)
---------------------------------
  C     11.770116    1.417974   -0.377697
  C     13.256078    1.134505   -0.502518
  C     10.841942    0.281896   -0.199422
  C      9.492907    0.338488    0.478201
  C      8.472975   -0.581196   -0.231875
  C      7.105580   -0.563556    0.415920
  C      6.051786   -0.037557   -0.230586
  C      4.628601    0.055716    0.244481
  C      3.709122   -0.960742   -0.488042
  C      2.258179   -0.859321   -0.071060
  C      1.325917   -0.424854   -0.935751
  C     -0.150528   -0.265208   -0.704607
  C     -0.982490   -1.294313   -1.520749
  C     -2.459838   -1.082532   -1.344770
  C     -3.338122   -1.854934   -0.682527
  C     -4.788041   -1.436981   -0.566172
  C     -5.215722   -1.111075    0.892217
  C     -6.657989   -0.696415    0.968222
  C     -7.160213    0.529388    1.195234
  C     -8.656019    0.758509    1.173651
  C     -9.122305    1.633353   -0.023430
  C    -10.609292    1.855021   -0.010378
  C    -11.535894    1.274789   -0.790935
  C    -13.003220    1.595206   -0.627998
  C     11.437814    2.816365    0.105744
  C      7.047956   -1.157978    1.803393
  C      1.980186   -1.259239    1.359089
  C    -11.238518    0.272283   -1.879460
  H     11.914342    3.555470   -0.552625
  H     13.424678    0.114829   -0.867481
  H     10.359675    2.999026    0.103742
  H     11.824490    2.968149    1.123217
  H     13.717201    1.840601   -1.206822
  H     13.751079    1.251014    0.471689
  H     11.299739   -0.716034   -0.177693
  H      7.620867   -0.547852    2.517845
  H      6.027077   -1.254957    2.185065
  H      7.509871   -2.157105    1.803332
  H      0.911753   -1.328483    1.584853
  H      2.440677   -2.236106    1.571494
  H      2.428875   -0.541018    2.061598
  H     -5.063659   -2.007236    1.511323
  H     -4.975281   -0.552494   -1.189101
  H     -2.845208   -0.158898   -1.786458
  H     -0.716879   -1.183325   -2.583881
  H     -0.411424   -0.364948    0.355208
  H      1.659731   -0.184749   -1.949450
  H      3.800311   -0.803565   -1.571480
  H      6.225743    0.340075   -1.241870
  H    -13.419959    2.001546   -1.563197
  H    -13.172455    2.325012    0.173230
  H    -13.578488    0.684455   -0.398167
  H    -11.790782   -0.661887   -1.693189
  H    -10.175370    0.027305   -1.963564
  H    -11.585067    0.649961   -2.854197
  H      9.618445    0.025080    1.525138
  H      4.557720   -0.102642    1.326177
  O     10.969826    0.930496   -1.489783
  C     -2.992242   -3.155417    0.002467
  H     -3.126300   -3.068921    1.090831
  H     -3.672272   -3.953033   -0.334097
  H     -1.963991   -3.479320   -0.183981
  C     -6.329683    1.762244    1.460126
  H     -6.456157    2.496430    0.650864
  H     -6.667062    2.254628    2.385170
  H     -5.260697    1.548919    1.553733
  H     -7.375693   -1.499480    0.777026
  H     -9.183527   -0.203153    1.125294
  H    -10.965699    2.549210    0.755671
  H     -8.613158    2.606342    0.031026
  H      8.398021   -0.266154   -1.280128
  H      4.239246    1.065714    0.045611
  H     -0.462335    0.746438   -1.009255
  H      8.869369   -1.610356   -0.224213
  H      4.088158   -1.972442   -0.272712
  H      9.104159    1.362676    0.481500
  H     -0.674419   -2.303078   -1.223436
  H     -5.437962   -2.244173   -0.942335
  H     -4.546323   -0.336016    1.283663
  H     -8.969425    1.255246    2.106398
  H     -8.790508    1.154381   -0.952353

----------------------------
CARTESIAN COORDINATES (A.U.)
----------------------------
  NO LB      ZA    FRAG     MASS         X           Y           Z
   0 C     6.0000    0    12.011   22.242296    2.679582   -0.713743
   1 C     6.0000    0    12.011   25.050357    2.143904   -0.949621
   2 C     6.0000    0    12.011   20.488301    0.532705   -0.376854
   3 C     6.0000    0    12.011   17.938994    0.639650    0.903669
   4 C     6.0000    0    12.011   16.011602   -1.098301   -0.438180
   5 C     6.0000    0    12.011   13.427601   -1.064967    0.785976
   6 C     6.0000    0    12.011   11.436218   -0.070973   -0.435744
   7 C     6.0000    0    12.011    8.746789    0.105288    0.462003
   8 C     6.0000    0    12.011    7.009224   -1.815539   -0.922266
   9 C     6.0000    0    12.011    4.267340   -1.623882   -0.134285
  10 C     6.0000    0    12.011    2.505620   -0.802858   -1.768313
  11 C     6.0000    0    12.011   -0.284456   -0.501171   -1.331514
  12 C     6.0000    0    12.011   -1.856637   -2.445897   -2.873800
  13 C     6.0000    0    12.011   -4.648420   -2.045688   -2.541247
  14 C     6.0000    0    12.011   -6.308137   -3.505316   -1.289790
  15 C     6.0000    0    12.011   -9.048086   -2.715500   -1.069909
  16 C     6.0000    0    12.011   -9.856285   -2.099627    1.686046
  17 C     6.0000    0    12.011  -12.581775   -1.316033    1.829675
  18 C     6.0000    0    12.011  -13.530841    1.000398    2.258665
  19 C     6.0000    0    12.011  -16.357505    1.433375    2.217879
  20 C     6.0000    0    12.011  -17.238657    3.086590   -0.044277
  21 C     6.0000    0    12.011  -20.048657    3.505482   -0.019611
  22 C     6.0000    0    12.011  -21.799681    2.409003   -1.494651
  23 C     6.0000    0    12.011  -24.572525    3.014502   -1.186744
  24 C     6.0000    0    12.011   21.614336    5.322159    0.199827
  25 C     6.0000    0    12.011   13.318707   -2.188262    3.407919
  26 C     6.0000    0    12.011    3.742010   -2.379616    2.568307
  27 C     6.0000    0    12.011  -21.237722    0.514541   -3.551664
  28 H     1.0000    0     1.008   22.514844    6.718865   -1.044310
  29 H     1.0000    0     1.008   25.368966    0.216996   -1.639302
  30 H     1.0000    0     1.008   19.576949    5.667338    0.196043
  31 H     1.0000    0     1.008   22.345049    5.608989    2.122573
  32 H     1.0000    0     1.008   25.921753    3.478231   -2.280562
  33 H     1.0000    0     1.008   25.985774    2.364074    0.891364
  34 H     1.0000    0     1.008   21.353411   -1.353109   -0.335790
  35 H     1.0000    0     1.008   14.401352   -1.035291    4.758037
  36 H     1.0000    0     1.008   11.389525   -2.371525    4.129175
  37 H     1.0000    0     1.008   14.191600   -4.076338    3.407804
  38 H     1.0000    0     1.008    1.722964   -2.510469    2.994939
  39 H     1.0000    0     1.008    4.612210   -4.225628    2.969693
  40 H     1.0000    0     1.008    4.589909   -1.022376    3.895855
  41 H     1.0000    0     1.008   -9.568929   -3.793125    2.855986
  42 H     1.0000    0     1.008   -9.401919   -1.044062   -2.247076
  43 H     1.0000    0     1.008   -5.376665   -0.300274   -3.375916
  44 H     1.0000    0     1.008   -1.354705   -2.236160   -4.882827
  45 H     1.0000    0     1.008   -0.777479   -0.689652    0.671245
  46 H     1.0000    0     1.008    3.136438   -0.349124   -3.683926
  47 H     1.0000    0     1.008    7.181548   -1.518518   -2.969667
  48 H     1.0000    0     1.008   11.764949    0.642648   -2.346794
  49 H     1.0000    0     1.008  -25.360048    3.782373   -2.954014
  50 H     1.0000    0     1.008  -24.892333    4.393636    0.327358
  51 H     1.0000    0     1.008  -25.659624    1.293432   -0.752426
  52 H     1.0000    0     1.008  -22.281348   -1.250785   -3.199664
  53 H     1.0000    0     1.008  -19.228662    0.051600   -3.710598
  54 H     1.0000    0     1.008  -21.892604    1.228249   -5.393650
  55 H     1.0000    0     1.008   18.176227    0.047394    2.882093
  56 H     1.0000    0     1.008    8.612842   -0.193966    2.506111
  57 O     8.0000    0    15.999   20.729968    1.758383   -2.815283
  58 C     6.0000    0    12.011   -5.654518   -5.962875    0.004663
  59 H     1.0000    0     1.008   -5.907850   -5.799420    2.061371
  60 H     1.0000    0     1.008   -6.939589   -7.470149   -0.631352
  61 H     1.0000    0     1.008   -3.711405   -6.574962   -0.347673
  62 C     6.0000    0    12.011  -11.961368    3.330158    2.759238
  63 H     1.0000    0     1.008  -12.200369    4.717569    1.229954
  64 H     1.0000    0     1.008  -12.598921    4.260630    4.507318
  65 H     1.0000    0     1.008   -9.941276    2.927033    2.936129
  66 H     1.0000    0     1.008  -13.938040   -2.833606    1.468366
  67 H     1.0000    0     1.008  -17.354350   -0.383904    2.126497
  68 H     1.0000    0     1.008  -20.722169    4.817309    1.428012
  69 H     1.0000    0     1.008  -16.276510    4.925273    0.058632
  70 H     1.0000    0     1.008   15.869960   -0.502958   -2.419092
  71 H     1.0000    0     1.008    8.011014    2.013908    0.086193
  72 H     1.0000    0     1.008   -0.873686    1.410563   -1.907215
  73 H     1.0000    0     1.008   16.760678   -3.043132   -0.423701
  74 H     1.0000    0     1.008    7.725500   -3.727375   -0.515352
  75 H     1.0000    0     1.008   17.204367    2.575085    0.909903
  76 H     1.0000    0     1.008   -1.274467   -4.352187   -2.311958
  77 H     1.0000    0     1.008  -10.276258   -4.240873   -1.780755
  78 H     1.0000    0     1.008   -8.591306   -0.634977    2.425771
  79 H     1.0000    0     1.008  -16.949756    2.372071    3.980515
  80 H     1.0000    0     1.008  -16.611652    2.181465   -1.799686

--------------------------------
INTERNAL COORDINATES (ANGSTROEM)
--------------------------------
 C      0   0   0     0.000000000000     0.00000000     0.00000000
 C      1   0   0     1.517899025636     0.00000000     0.00000000
 C      1   2   0     1.477823842997   118.76436882     0.00000000
 C      3   1   2     1.510718817220   125.88504439   153.57247778
 C      4   3   1     1.546055715816   111.14955929   143.16087378
 C      5   4   3     1.513181193007   113.11558281   179.72022043
 C      6   5   4     1.343550660924   120.48637588   112.74032201
 C      7   6   5     1.503277384264   127.93531167   179.38827860
 C      8   7   6     1.554097585554   111.75191488   253.58820160
 C      9   8   7     1.513074617940   113.17965668   182.13747266
 C     10   9   8     1.343712740751   120.63967476   112.42520693
 C     11  10   9     1.502931547289   128.09338745   179.70230751
 C     12  11  10     1.554768689794   112.00158926   248.79729904
 C     13  12  11     1.502789438840   111.79555880   183.11148479
 C     14  13  12     1.344080719702   128.25009690   250.65609873
 C     15  14  13     1.513435740894   120.34468011   177.28064414
 C     16  15  14     1.554356048356   113.18122421   245.99602082
 C     17  16  15     1.502615558572   111.67979025   179.82107485
 C     18  17  16     1.344007315191   128.23591579   252.13697474
 C     19  18  17     1.513406415702   120.33146053   177.27558321
 C     20  19  18     1.554276807801   113.12328232   248.02342747
 C     21  20  19     1.503475931299   111.90149519   180.58109499
 C     22  21  20     1.343327915427   127.84215648   255.57696940
 C     23  22  21     1.510715474544   121.04342141   178.86078872
 C      1   2   3     1.516455366270   114.39009872   156.38691493
 C      6   5   4     1.510542423708   115.03096185   293.23233644
 C     10   9   8     1.510808619425   114.80784857   293.24629436
 C     23  22  21     1.509415760875   124.75152879   358.95005886
 H     25   1   2     1.098546435121   109.53054846    55.48661636
 H      2   1   3     1.096066911158   110.59152224    24.34459342
 H     25   1   2     1.093504950821   111.68508417   175.47515389
 H     25   1   2     1.099003739694   110.20649681   296.78370622
 H      2   1   3     1.098749080656   110.09321967   144.42824067
 H      2   1   3     1.098945029416   110.38079619   263.72045924
 H      3   1   2     1.098141287649   116.04992003   359.45981721
 H     26   6   5     1.100419064210   110.99656264    66.47371982
 H     26   6   5     1.094199558272   113.00825247   187.93198385
 H     26   6   5     1.100735908934   109.94577480   308.83927175
 H     27  10   9     1.094217874162   113.06199154   189.12874369
 H     27  10   9     1.100653106387   109.91518124   310.16226012
 H     27  10   9     1.100309173100   110.88911875    67.76290111
 H     17  16  15     1.099781491566   108.61955566   300.32885043
 H     16  15  14     1.097914797026   110.01345293     7.48960205
 H     14  13  12     1.093936855172   114.70963181    68.17307015
 H     13  12  11     1.101415373209   108.11597296   303.87234839
 H     12  11  10     1.096002418819   111.89455246    11.09580862
 H     11  10   9     1.093922953653   117.10163033     1.97968131
 H      9   8   7     1.098571098883   108.79407358   304.71690854
 H      7   6   5     1.093417945169   117.09546695     1.87111344
 H     24  23  22     1.101535553871   110.74018487   120.97076788
 H     24  23  22     1.096915845683   111.69989307     0.00000000
 H     24  23  22     1.101464290283   110.75714365   238.93605486
 H     28  23  22     1.101074849948   110.04003852   122.85880135
 H     28  23  22     1.094245466760   113.29943592     1.74104145
 H     28  23  22     1.101294129859   110.39669522   240.04324812
 H      4   3   1     1.100028106281   108.31938608   264.18546447
 H      8   7   6     1.095521351049   111.36560218    16.31184111
 O      3   1   2     1.449851408714    59.55789125   257.17017477
 C     15  14  13     1.510003163078   124.66421367   358.05819623
 H     59  15  14     1.099994513283   110.68333552   114.66028506
 H     59  15  14     1.100866205376   110.10964038   232.15809768
 H     59  15  14     1.094064416221   113.13802802   353.49367684
 C     19  18  17     1.509926879721   124.66534239   358.37821125
 H     63  19  18     1.099968376022   110.65067528   115.13148539
 H     63  19  18     1.100896977243   110.12263364   232.63547605
 H     63  19  18     1.094075935931   113.15623804   354.05400841
 H     18  17  16     1.093878096980   114.72883913    69.76480915
 H     20  19  18     1.097906157762   110.05366626     9.38526097
 H     22  21  20     1.093506116414   114.96315370    73.28865615
 H     21  20  19     1.099501827483   108.72518019   301.14581772
 H      5   4   3     1.097134275685   108.24467979   302.02869633
 H      8   7   6     1.100565234158   109.55824841   134.17607255
 H     12  11  10     1.101572743920   109.45619803   128.88042584
 H      5   4   3     1.102886418965   108.34850714    58.20807800
 H      9   8   7     1.101622722347   107.75574180    60.61980087
 H      4   3   1     1.095489552932   110.68663696    22.04578167
 H     13  12  11     1.095860883053   108.44838035    59.16805566
 H     16  15  14     1.102476748042   109.65412518   125.15274647
 H     17  16  15     1.096376124464   108.37420539    56.11873722
 H     20  19  18     1.102264673870   109.70518569   127.07932186
 H     21  20  19     1.096539889614   108.41025723    56.85176452

---------------------------
INTERNAL COORDINATES (A.U.)
---------------------------
 C      0   0   0     0.000000000000     0.00000000     0.00000000
 C      1   0   0     2.868413457397     0.00000000     0.00000000
 C      1   2   0     2.792682337444   118.76436882     0.00000000
 C      3   1   2     2.854844829907   125.88504439   153.57247778
 C      4   3   1     2.921621890675   111.14955929   143.16087378
 C      5   4   3     2.859498045783   113.11558281   179.72022043
 C      6   5   4     2.538942796195   120.48637588   112.74032201
 C      7   6   5     2.840782559577   127.93531167   179.38827860
 C      8   7   6     2.936818822086   111.75191488   253.58820160
 C      9   8   7     2.859296648095   113.17965668   182.13747266
 C     10   9   8     2.539249082681   120.63967476   112.42520693
 C     11  10   9     2.840129022407   128.09338745   179.70230751
 C     12  11  10     2.938087025305   112.00158926   248.79729904
 C     13  12  11     2.839860476357   111.79555880   183.11148479
 C     14  13  12     2.539944462121   128.25009690   250.65609873
 C     15  14  13     2.859979071578   120.34468011   177.28064414
 C     16  15  14     2.937307245998   113.18122421   245.99602082
 C     17  16  15     2.839531890270   111.67979025   179.82107485
 C     18  17  16     2.539805747698   128.23591579   252.13697474
 C     19  18  17     2.859923654996   120.33146053   177.27558321
 C     20  19  18     2.937157503049   113.12328232   248.02342747
 C     21  20  19     2.841157759098   111.90149519   180.58109499
 C     22  21  20     2.538521868209   127.84215648   255.57696940
 C     23  22  21     2.854838513166   121.04342141   178.86078872
 C      1   2   3     2.865685336565   114.39009872   156.38691493
 C      6   5   4     2.854511494477   115.03096185   293.23233644
 C     10   9   8     2.855014531481   114.80784857   293.24629436
 C     23  22  21     2.852382410278   124.75152879   358.95005886
 H     25   1   2     2.075951907774   109.53054846    55.48661636
 H      2   1   3     2.071266286541   110.59152224    24.34459342
 H     25   1   2     2.066424883139   111.68508417   175.47515389
 H     25   1   2     2.076816088177   110.20649681   296.78370622
 H      2   1   3     2.076334852338   110.09321967   144.42824067
 H      2   1   3     2.076705141831   110.38079619   263.72045924
 H      3   1   2     2.075186290008   116.04992003   359.45981721
 H     26   6   5     2.079490663903   110.99656264    66.47371982
 H     26   6   5     2.067737500992   113.00825247   187.93198385
 H     26   6   5     2.080089413657   109.94577480   308.83927175
 H     27  10   9     2.067772113008   113.06199154   189.12874369
 H     27  10   9     2.079932939521   109.91518124   310.16226012
 H     27  10   9     2.079282999801   110.88911875    67.76290111
 H     17  16  15     2.078285826214   108.61955566   300.32885043
 H     16  15  14     2.074758284759   110.01345293     7.48960205
 H     14  13  12     2.067241064078   114.70963181    68.17307015
 H     13  12  11     2.081373415055   108.11597296   303.87234839
 H     12  11  10     2.071144413683   111.89455246    11.09580862
 H     11  10   9     2.067214794015   117.10163033     1.97968131
 H      9   8   7     2.075998515530   108.79407358   304.71690854
 H      7   6   5     2.066260466284   117.09546695     1.87111344
 H     24  23  22     2.081600523593   110.74018487   120.97076788
 H     24  23  22     2.072870540300   111.69989307     0.00000000
 H     24  23  22     2.081465854929   110.75714365   238.93605486
 H     28  23  22     2.080729919350   110.04003852   122.85880135
 H     28  23  22     2.067824255461   113.29943592     1.74104145
 H     28  23  22     2.081144298328   110.39669522   240.04324812
 H      4   3   1     2.078751860487   108.31938608   264.18546447
 H      8   7   6     2.070235327346   111.36560218    16.31184111
 O      3   1   2     2.739822097350    59.55789125   257.17017477
 C     15  14  13     2.853492439573   124.66421367   358.05819623
 H     59  15  14     2.078688378922   110.68333552   114.66028506
 H     59  15  14     2.080335638249   110.10964038   232.15809768
 H     59  15  14     2.067482119527   113.13802802   353.49367684
 C     19  18  17     2.853348284920   124.66534239   358.37821125
 H     63  19  18     2.078638986655   110.65067528   115.13148539
 H     63  19  18     2.080393788652   110.12263364   232.63547605
 H     63  19  18     2.067503888623   113.15623804   354.05400841
 H     18  17  16     2.067130027187   114.72883913    69.76480915
 H     20  19  18     2.074741958915   110.05366626     9.38526097
 H     22  21  20     2.066427085790   114.96315370    73.28865615
 H     21  20  19     2.077757337689   108.72518019   301.14581772
 H      5   4   3     2.073283313183   108.24467979   302.02869633
 H      8   7   6     2.079766885074   109.55824841   134.17607255
 H     12  11  10     2.081670802601   109.45619803   128.88042584
 H      5   4   3     2.084153288665   108.34850714    58.20807800
 H      9   8   7     2.081765248140   107.75574180    60.61980087
 H      4   3   1     2.070175237614   110.68663696    22.04578167
 H     13  12  11     2.070876949846   108.44838035    59.16805566
 H     16  15  14     2.083379122815   109.65412518   125.15274647
 H     17  16  15     2.071850615007   108.37420539    56.11873722
 H     20  19  18     2.082978360711   109.70518569   127.07932186
 H     21  20  19     2.072160086290   108.41025723    56.85176452

---------------------
BASIS SET INFORMATION
---------------------
There are 3 groups of distinct atoms

 Group   1 Type C   : 8s4p1d contracted to 4s2p1d pattern {5111/31/1}
 Group   2 Type H   : 4s contracted to 2s pattern {31}
 Group   3 Type O   : 8s4p1d contracted to 4s2p1d pattern {5111/31/1}

Atom   0C    basis set group =>   1
Atom   1C    basis set group =>   1
Atom   2C    basis set group =>   1
Atom   3C    basis set group =>   1
Atom   4C    basis set group =>   1
Atom   5C    basis set group =>   1
Atom   6C    basis set group =>   1
Atom   7C    basis set group =>   1
Atom   8C    basis set group =>   1
Atom   9C    basis set group =>   1
Atom  10C    basis set group =>   1
Atom  11C    basis set group =>   1
Atom  12C    basis set group =>   1
Atom  13C    basis set group =>   1
Atom  14C    basis set group =>   1
Atom  15C    basis set group =>   1
Atom  16C    basis set group =>   1
Atom  17C    basis set group =>   1
Atom  18C    basis set group =>   1
Atom  19C    basis set group =>   1
Atom  20C    basis set group =>   1
Atom  21C    basis set group =>   1
Atom  22C    basis set group =>   1
Atom  23C    basis set group =>   1
Atom  24C    basis set group =>   1
Atom  25C    basis set group =>   1
Atom  26C    basis set group =>   1
Atom  27C    basis set group =>   1
Atom  28H    basis set group =>   2
Atom  29H    basis set group =>   2
Atom  30H    basis set group =>   2
Atom  31H    basis set group =>   2
Atom  32H    basis set group =>   2
Atom  33H    basis set group =>   2
Atom  34H    basis set group =>   2
Atom  35H    basis set group =>   2
Atom  36H    basis set group =>   2
Atom  37H    basis set group =>   2
Atom  38H    basis set group =>   2
Atom  39H    basis set group =>   2
Atom  40H    basis set group =>   2
Atom  41H    basis set group =>   2
Atom  42H    basis set group =>   2
Atom  43H    basis set group =>   2
Atom  44H    basis set group =>   2
Atom  45H    basis set group =>   2
Atom  46H    basis set group =>   2
Atom  47H    basis set group =>   2
Atom  48H    basis set group =>   2
Atom  49H    basis set group =>   2
Atom  50H    basis set group =>   2
Atom  51H    basis set group =>   2
Atom  52H    basis set group =>   2
Atom  53H    basis set group =>   2
Atom  54H    basis set group =>   2
Atom  55H    basis set group =>   2
Atom  56H    basis set group =>   2
Atom  57O    basis set group =>   3
Atom  58C    basis set group =>   1
Atom  59H    basis set group =>   2
Atom  60H    basis set group =>   2
Atom  61H    basis set group =>   2
Atom  62C    basis set group =>   1
Atom  63H    basis set group =>   2
Atom  64H    basis set group =>   2
Atom  65H    basis set group =>   2
Atom  66H    basis set group =>   2
Atom  67H    basis set group =>   2
Atom  68H    basis set group =>   2
Atom  69H    basis set group =>   2
Atom  70H    basis set group =>   2
Atom  71H    basis set group =>   2
Atom  72H    basis set group =>   2
Atom  73H    basis set group =>   2
Atom  74H    basis set group =>   2
Atom  75H    basis set group =>   2
Atom  76H    basis set group =>   2
Atom  77H    basis set group =>   2
Atom  78H    basis set group =>   2
Atom  79H    basis set group =>   2
Atom  80H    basis set group =>   2
---------------------------------
AUXILIARY/J BASIS SET INFORMATION
---------------------------------
There are 3 groups of distinct atoms

 Group   1 Type C   : 12s5p4d2f1g contracted to 6s4p3d1f1g pattern {711111/2111/211/2/1}
 Group   2 Type H   : 5s2p1d contracted to 3s1p1d pattern {311/2/1}
 Group   3 Type O   : 12s5p4d2f1g contracted to 6s4p3d1f1g pattern {711111/2111/211/2/1}

Atom   0C    basis set group =>   1
Atom   1C    basis set group =>   1
Atom   2C    basis set group =>   1
Atom   3C    basis set group =>   1
Atom   4C    basis set group =>   1
Atom   5C    basis set group =>   1
Atom   6C    basis set group =>   1
Atom   7C    basis set group =>   1
Atom   8C    basis set group =>   1
Atom   9C    basis set group =>   1
Atom  10C    basis set group =>   1
Atom  11C    basis set group =>   1
Atom  12C    basis set group =>   1
Atom  13C    basis set group =>   1
Atom  14C    basis set group =>   1
Atom  15C    basis set group =>   1
Atom  16C    basis set group =>   1
Atom  17C    basis set group =>   1
Atom  18C    basis set group =>   1
Atom  19C    basis set group =>   1
Atom  20C    basis set group =>   1
Atom  21C    basis set group =>   1
Atom  22C    basis set group =>   1
Atom  23C    basis set group =>   1
Atom  24C    basis set group =>   1
Atom  25C    basis set group =>   1
Atom  26C    basis set group =>   1
Atom  27C    basis set group =>   1
Atom  28H    basis set group =>   2
Atom  29H    basis set group =>   2
Atom  30H    basis set group =>   2
Atom  31H    basis set group =>   2
Atom  32H    basis set group =>   2
Atom  33H    basis set group =>   2
Atom  34H    basis set group =>   2
Atom  35H    basis set group =>   2
Atom  36H    basis set group =>   2
Atom  37H    basis set group =>   2
Atom  38H    basis set group =>   2
Atom  39H    basis set group =>   2
Atom  40H    basis set group =>   2
Atom  41H    basis set group =>   2
Atom  42H    basis set group =>   2
Atom  43H    basis set group =>   2
Atom  44H    basis set group =>   2
Atom  45H    basis set group =>   2
Atom  46H    basis set group =>   2
Atom  47H    basis set group =>   2
Atom  48H    basis set group =>   2
Atom  49H    basis set group =>   2
Atom  50H    basis set group =>   2
Atom  51H    basis set group =>   2
Atom  52H    basis set group =>   2
Atom  53H    basis set group =>   2
Atom  54H    basis set group =>   2
Atom  55H    basis set group =>   2
Atom  56H    basis set group =>   2
Atom  57O    basis set group =>   3
Atom  58C    basis set group =>   1
Atom  59H    basis set group =>   2
Atom  60H    basis set group =>   2
Atom  61H    basis set group =>   2
Atom  62C    basis set group =>   1
Atom  63H    basis set group =>   2
Atom  64H    basis set group =>   2
Atom  65H    basis set group =>   2
Atom  66H    basis set group =>   2
Atom  67H    basis set group =>   2
Atom  68H    basis set group =>   2
Atom  69H    basis set group =>   2
Atom  70H    basis set group =>   2
Atom  71H    basis set group =>   2
Atom  72H    basis set group =>   2
Atom  73H    basis set group =>   2
Atom  74H    basis set group =>   2
Atom  75H    basis set group =>   2
Atom  76H    basis set group =>   2
Atom  77H    basis set group =>   2
Atom  78H    basis set group =>   2
Atom  79H    basis set group =>   2
Atom  80H    basis set group =>   2


           ************************************************************
           *        Program running with 4 parallel MPI-processes     *
           *              working on a common directory               *
           ************************************************************
------------------------------------------------------------------------------
                           ORCA GTO INTEGRAL CALCULATION
                           -- RI-GTO INTEGRALS CHOSEN --
------------------------------------------------------------------------------
------------------------------------------------------------------------------
                   ___                                                        
                  /   \      - P O W E R E D   B Y -                         
                 /     \                                                     
                 |  |  |   _    _      __       _____    __    __             
                 |  |  |  | |  | |    /  \     |  _  \  |  |  /  |          
                  \  \/   | |  | |   /    \    | | | |  |  | /  /          
                 / \  \   | |__| |  /  /\  \   | |_| |  |  |/  /          
                |  |  |   |  __  | /  /__\  \  |    /   |      \           
                |  |  |   | |  | | |   __   |  |    \   |  |\   \          
                \     /   | |  | | |  |  |  |  | |\  \  |  | \   \       
                 \___/    |_|  |_| |__|  |__|  |_| \__\ |__|  \__/        
                                                                              
                      - O R C A' S   B I G   F R I E N D -                    
                                      &                                       
                       - I N T E G R A L  F E E D E R -                       
                                                                              
 v1 FN, 2020, v2 2021                                                         
------------------------------------------------------------------------------


Reading SHARK input file pbeh-3c.SHARKINP.tmp ... ok
----------------------
SHARK INTEGRAL PACKAGE
----------------------

Number of atoms                             ...     81
Number of basis functions                   ...    565
Number of shells                            ...    317
Maximum angular momentum                    ...      2
Integral batch strategy                     ... SHARK/LIBINT Hybrid
RI-J (if used) integral strategy            ... SPLIT-RIJ (Revised 2003 algorithm where possible)
Printlevel                                  ...      1
Contraction scheme used                     ... SEGMENTED contraction
Coulomb Range Separation                    ... NOT USED
Exchange Range Separation                   ... NOT USED
Finite Nucleus Model                        ... NOT USED
Auxiliary Coulomb fitting basis             ... AVAILABLE
   # of basis functions in Aux-J            ...   2069
   # of shells in Aux-J                     ...    715
   Maximum angular momentum in Aux-J        ...      4
Auxiliary J/K fitting basis                 ... NOT available
Auxiliary Correlation fitting basis         ... NOT available
Auxiliary 'external' fitting basis          ... NOT available
Integral threshold                          ...     2.500000e-11
Primitive cut-off                           ...     2.500000e-12
Primitive pair pre-selection threshold      ...     2.500000e-12

Calculating pre-screening integrals         ... done (  0.1 sec) Dimension = 317
Organizing shell pair data                  ... done (  0.5 sec)
Shell pair information
Total number of shell pairs                 ...     50403
Shell pairs after pre-screening             ...     18333
Total number of primitive shell pairs       ...    182659
Primitive shell pairs kept                  ...     41655
          la=0 lb=0:   8463 shell pairs
          la=1 lb=0:   5795 shell pairs
          la=1 lb=1:    947 shell pairs
          la=2 lb=0:   2219 shell pairs
          la=2 lb=1:    758 shell pairs
          la=2 lb=2:    151 shell pairs

Calculating one electron integrals          ... done (  0.1 sec)
Calculating RI/J V-Matrix + Cholesky decomp.... done (  2.2 sec)
Calculating Nuclear repulsion               ... done (  1.1 sec) ENN=   2602.966273330219 Eh

SHARK setup successfully completed in   5.7 seconds

Maximum memory used throughout the entire GTOINT-calculation: 50.2 MB


           ************************************************************
           *        Program running with 4 parallel MPI-processes     *
           *              working on a common directory               *
           ************************************************************
-------------------------------------------------------------------------------
                                 ORCA SCF
-------------------------------------------------------------------------------

------------
SCF SETTINGS
------------
Hamiltonian:
 Density Functional     Method          .... DFT(GTOs)
 Exchange Functional    Exchange        .... PBE
   PBE kappa parameter   XKappa         ....  1.024500
   PBE mue parameter    XMuePBE         ....  0.123457
 Correlation Functional Correlation     .... PBE
   PBE beta parameter  CBetaPBE         ....  0.030000
 LDA part of GGA corr.  LDAOpt          .... PW91-LDA
 Gradients option       PostSCFGGA      .... off
 Hybrid DFT is turned on
   Fraction HF Exchange ScalHFX         ....  0.420000
   Scaling of DF-GGA-X  ScalDFX         ....  0.580000
   Scaling of DF-GGA-C  ScalDFC         ....  1.000000
   Scaling of DF-LDA-C  ScalLDAC        ....  1.000000
   Perturbative correction              ....  0.000000
   Density functional embedding theory  .... OFF
 RI-approximation to the Coulomb term is turned on
   Number of AuxJ basis functions       .... 2069
   RIJ-ON(X) (HFX calculated with O(N)) .... on
   Number of AuxJ basis functions       .... 2069
   RIJ-COSX (HFX calculated with COS-X)).... on


General Settings:
 Integral files         IntName         .... pbeh-3c
 Hartree-Fock type      HFTyp           .... RHF
 Total Charge           Charge          ....    0
 Multiplicity           Mult            ....    1
 Number of Electrons    NEL             ....  238
 Basis Dimension        Dim             ....  565
 Nuclear Repulsion      ENuc            ....   2602.9662733302 Eh

Convergence Acceleration:
 DIIS                   CNVDIIS         .... on
   Start iteration      DIISMaxIt       ....    12
   Startup error        DIISStart       ....  0.200000
   # of expansion vecs  DIISMaxEq       ....     5
   Bias factor          DIISBfac        ....   1.050
   Max. coefficient     DIISMaxC        ....  10.000
 Trust-Rad. Augm. Hess. CNVTRAH         .... auto
   Auto Start mean grad. ratio tolernc. ....  1.125000
   Auto Start start iteration           ....    20
   Auto Start num. interpolation iter.  ....    10
   Max. Number of Micro iterations      ....    16
   Max. Number of Macro iterations      .... Maxiter - #DIIS iter
   Number of Davidson start vectors     ....     2
   Converg. threshold I  (grad. norm)   ....   1.000e-05
   Converg. threshold II (energy diff.) ....   1.000e-08
   Grad. Scal. Fac. for Micro threshold ....   0.100
   Minimum threshold for Micro iter.    ....   0.010
   NR start threshold (gradient norm)   ....   0.001
   Initial trust radius                 ....   0.400
   Minimum AH scaling param. (alpha)    ....   1.000
   Maximum AH scaling param. (alpha)    .... 1000.000
   Orbital update algorithm             .... Taylor
   White noise on init. David. guess    .... on
   Maximum white noise                  ....   0.010
   Quad. conv. algorithm                .... NR
   COSX micro iterations for RIJONX calc.... off
 SOSCF                  CNVSOSCF        .... on
   Start iteration      SOSCFMaxIt      ....   150
   Startup grad/error   SOSCFStart      ....  0.003300
 Level Shifting         CNVShift        .... on
   Level shift para.    LevelShift      ....    0.2500
   Turn off err/grad.   ShiftErr        ....    0.0010
 Zerner damping         CNVZerner       .... off
 Static damping         CNVDamp         .... on
   Fraction old density DampFac         ....    0.7000
   Max. Damping (<1)    DampMax         ....    0.9800
   Min. Damping (>=0)   DampMin         ....    0.0000
   Turn off err/grad.   DampErr         ....    0.1000
 Fernandez-Rico         CNVRico         .... off

SCF Procedure:
 Maximum # iterations   MaxIter         ....   125
 SCF integral mode      SCFMode         .... Direct
   Integral package                     .... SHARK and LIBINT hybrid scheme
 Reset frequency        DirectResetFreq ....    20
 Integral Threshold     Thresh          ....  2.500e-11 Eh
 Primitive CutOff       TCut            ....  2.500e-12 Eh

Convergence Tolerance:
 Convergence Check Mode ConvCheckMode   .... Total+1el-Energy
 Convergence forced     ConvForced      .... 0
 Energy Change          TolE            ....  1.000e-08 Eh
 1-El. energy change                    ....  1.000e-05 Eh
 Orbital Gradient       TolG            ....  1.000e-05
 Orbital Rotation angle TolX            ....  1.000e-05
 DIIS Error             TolErr          ....  5.000e-07


Diagonalization of the overlap matrix:
Smallest eigenvalue                        ... 2.082e-03
Time for diagonalization                   ...    0.135 sec
Threshold for overlap eigenvalues          ... 1.000e-08
Number of eigenvalues below threshold      ... 0
Time for construction of square roots      ...    0.113 sec
Total time needed                          ...    0.250 sec

--------------------------------
INITIAL GUESS: MINIMAL BASIS EHT
--------------------------------
The minimal basis has 205 functions
EHT matrix was diagonalized
Basis set overlap was calculated now projecting the orbitals
Using GuessMode=FMatrix for the initial guess
C*T matrix was formed
Effective Fockian was calculated
Effective Fockian was diagonalized
Initial density was built
                      ------------------
                      INITIAL GUESS DONE
                      ------------------
-------------------
DFT GRID GENERATION
-------------------

General Integration Accuracy     IntAcc      ... 4.959
Radial Grid Type                 RadialGrid  ... OptM3 with GC (2021)
Angular Grid (max. ang.)         AngularGrid ... 6 (Lebedev-590)
Angular grid pruning method      GridPruning ... 4 (adaptive)
Weight generation scheme         WeightScheme... Becke
Basis function cutoff            BFCut       ... 1.0000e-11
Integration weight cutoff        WCut        ... 1.0000e-14
Angular grids for H and He will be reduced by one unit
Partially contracted basis set               ... off
Rotationally invariant grid construction     ... off

Total number of grid points                  ...   864392
Total number of batches                      ...    13545
Average number of points per batch           ...       63
Average number of grid points per atom       ...    10672
Time for grid setup =   23.066 sec

--------------------
COSX GRID GENERATION
--------------------

GRIDX 1
-------
General Integration Accuracy     IntAcc      ... 4.020
Radial Grid Type                 RadialGrid  ... OptM3 with GC (2021)
Angular Grid (max. ang.)         AngularGrid ... 2 (Lebedev-110)
Angular grid pruning method      GridPruning ... 4 (adaptive)
Weight generation scheme         WeightScheme... Becke
Basis function cutoff            BFCut       ... 1.0000e-11
Integration weight cutoff        WCut        ... 1.0000e-14
Angular grids for H and He will be reduced by one unit
Partially contracted basis set               ... on
Rotationally invariant grid construction     ... off

Total number of grid points                  ...    90893
Total number of batches                      ...     1467
Average number of points per batch           ...       61
Average number of grid points per atom       ...     1122
UseSFitting                                  ... on

GRIDX 2
-------
General Integration Accuracy     IntAcc      ... 4.338
Radial Grid Type                 RadialGrid  ... OptM3 with GC (2021)
Angular Grid (max. ang.)         AngularGrid ... 3 (Lebedev-194)
Angular grid pruning method      GridPruning ... 4 (adaptive)
Weight generation scheme         WeightScheme... Becke
Basis function cutoff            BFCut       ... 1.0000e-11
Integration weight cutoff        WCut        ... 1.0000e-14
Angular grids for H and He will be reduced by one unit
Partially contracted basis set               ... on
Rotationally invariant grid construction     ... off

Total number of grid points                  ...   197120
Total number of batches                      ...     3123
Average number of points per batch           ...       63
Average number of grid points per atom       ...     2434
UseSFitting                                  ... on

GRIDX 3
-------
General Integration Accuracy     IntAcc      ... 4.871
Radial Grid Type                 RadialGrid  ... OptM3 with GC (2021)
Angular Grid (max. ang.)         AngularGrid ... 4 (Lebedev-302)
Angular grid pruning method      GridPruning ... 4 (adaptive)
Weight generation scheme         WeightScheme... Becke
Basis function cutoff            BFCut       ... 1.0000e-11
Integration weight cutoff        WCut        ... 1.0000e-14
Angular grids for H and He will be reduced by one unit
Partially contracted basis set               ... on
Rotationally invariant grid construction     ... off

Total number of grid points                  ...   384143
Total number of batches                      ...     6045
Average number of points per batch           ...       63
Average number of grid points per atom       ...     4743
UseSFitting                                  ... on

Time for X-Grid setup             =   16.103 sec

--------------
SCF ITERATIONS
--------------
ITER       Energy         Delta-E        Max-DP      RMS-DP      [F,P]     Damp
               ***  Starting incremental Fock matrix formation  ***
  0  -1242.9850584720   0.000000000000 0.17380279  0.00185800  0.5381973 0.7000
  1  -1243.8530871686  -0.868028696571 0.09382454  0.00127898  0.2835542 0.7000
  2  -1244.4166689123  -0.563581743668 0.04084837  0.00089320  0.2002231 0.7000
                               ***Turning on DIIS***
  3  -1244.8155967409  -0.398927828618 0.03363944  0.00065327  0.1410693 0.7000
  4  -1245.0996667628  -0.284070021922 0.09074203  0.00170453  0.0993479 0.0000
  5  -1245.7769101751  -0.677243412241 0.01037433  0.00013342  0.0095111 0.0000
  6  -1245.7777168366  -0.000806661557 0.00560139  0.00005125  0.0069634 0.0000
                      *** Initiating the SOSCF procedure ***
                           *** Shutting down DIIS ***
                      *** Re-Reading the Fockian *** 
                      *** Removing any level shift *** 
ITER      Energy       Delta-E        Grad      Rot      Max-DP    RMS-DP
  7  -1245.77789642  -0.0001795814  0.000466  0.000466  0.002255  0.000025
               *** Restarting incremental Fock matrix formation ***
  8  -1245.77793249  -0.0000360712  0.000149  0.000383  0.000658  0.000015
  9  -1245.77793615  -0.0000036609  0.000070  0.000203  0.000251  0.000006
 10  -1245.77793692  -0.0000007666  0.000044  0.000094  0.000143  0.000003
 11  -1245.77793706  -0.0000001439  0.000017  0.000021  0.000048  0.000001
 12  -1245.77793708  -0.0000000207  0.000007  0.000013  0.000024  0.000001
                  ***Gradient check signals convergence***
              ***Rediagonalizing the Fockian in SOSCF/NRSCF***

               *****************************************************
               *                     SUCCESS                       *
               *           SCF CONVERGED AFTER  13 CYCLES          *
               *****************************************************

Old exchange energy                            =    -76.147622321 Eh
New exchange energy                            =    -76.147621378 Eh
Exchange energy change after final integration =      0.000000943 Eh
Total energy after final integration           =  -1245.777936169 Eh
Final COS-X integration done in                =   104.092 sec

----------------
TOTAL SCF ENERGY
----------------

Total Energy       :        -1245.77793617 Eh          -33899.34105 eV

Components:
Nuclear Repulsion  :         2602.96627333 Eh           70830.31324 eV
Electronic Energy  :        -3848.74420950 Eh         -104729.65429 eV
One Electron Energy:        -6857.49707819 Eh         -186601.98216 eV
Two Electron Energy:         3008.75286869 Eh           81872.32787 eV
Max COSX asymmetry :            0.00000105 Eh               0.00003 eV

Virial components:
Potential Energy   :        -2480.34454588 Eh          -67493.60640 eV
Kinetic Energy     :         1234.56660971 Eh           33594.26535 eV
Virial Ratio       :            2.00908118


DFT components:
N(Alpha)           :      118.999989844173 electrons
N(Beta)            :      118.999989844173 electrons
N(Total)           :      237.999979688346 electrons
E(X)               :     -100.984364751727 Eh       
E(C)               :      -10.180859972828 Eh       
E(XC)              :     -111.165224724556 Eh       
DFET-embed. en.    :        0.000000000000 Eh       

---------------
SCF CONVERGENCE
---------------

  Last Energy change         ...   -3.0652e-08  Tolerance :   1.0000e-08
  Last MAX-Density change    ...    2.2204e-15  Tolerance :   1.0000e-07
  Last RMS-Density change    ...    2.6583e-17  Tolerance :   5.0000e-09
  Last Orbital Gradient      ...    1.2834e-06  Tolerance :   1.0000e-05
  Last Orbital Rotation      ...    2.9776e-06  Tolerance :   1.0000e-05

             **** THE GBW FILE WAS UPDATED (pbeh-3c.gbw) ****
             **** DENSITY pbeh-3c.scfp WAS UPDATED ****
             **** ENERGY FILE WAS UPDATED (pbeh-3c.en.tmp) ****
             **** THE GBW FILE WAS UPDATED (pbeh-3c.gbw) ****
             **** DENSITY pbeh-3c.scfp WAS UPDATED ****
----------------
ORBITAL ENERGIES
----------------

  NO   OCC          E(Eh)            E(eV) 
   0   2.0000     -19.492260      -530.4114 
   1   2.0000     -10.501710      -285.7660 
   2   2.0000     -10.489876      -285.4440 
   3   2.0000     -10.448307      -284.3129 
   4   2.0000     -10.447827      -284.2998 
   5   2.0000     -10.446098      -284.2528 
   6   2.0000     -10.446054      -284.2516 
   7   2.0000     -10.446011      -284.2504 
   8   2.0000     -10.441364      -284.1240 
   9   2.0000     -10.437522      -284.0194 
  10   2.0000     -10.436465      -283.9906 
  11   2.0000     -10.436284      -283.9857 
  12   2.0000     -10.436018      -283.9785 
  13   2.0000     -10.435784      -283.9721 
  14   2.0000     -10.435483      -283.9639 
  15   2.0000     -10.435404      -283.9618 
  16   2.0000     -10.435294      -283.9588 
  17   2.0000     -10.435080      -283.9530 
  18   2.0000     -10.433819      -283.9187 
  19   2.0000     -10.433105      -283.8992 
  20   2.0000     -10.433019      -283.8969 
  21   2.0000     -10.432958      -283.8952 
  22   2.0000     -10.431928      -283.8672 
  23   2.0000     -10.431693      -283.8608 
  24   2.0000     -10.431433      -283.8537 
  25   2.0000     -10.431404      -283.8529 
  26   2.0000     -10.430618      -283.8315 
  27   2.0000     -10.430150      -283.8188 
  28   2.0000     -10.429934      -283.8129 
  29   2.0000     -10.429893      -283.8118 
  30   2.0000     -10.429175      -283.7923 
  31   2.0000      -1.160705       -31.5844 
  32   2.0000      -0.920972       -25.0609 
  33   2.0000      -0.918392       -24.9907 
  34   2.0000      -0.911043       -24.7907 
  35   2.0000      -0.903981       -24.5986 
  36   2.0000      -0.894400       -24.3379 
  37   2.0000      -0.869291       -23.6546 
  38   2.0000      -0.855260       -23.2728 
  39   2.0000      -0.853267       -23.2186 
  40   2.0000      -0.839990       -22.8573 
  41   2.0000      -0.820108       -22.3163 
  42   2.0000      -0.810737       -22.0613 
  43   2.0000      -0.779214       -21.2035 
  44   2.0000      -0.779091       -21.2001 
  45   2.0000      -0.769717       -20.9451 
  46   2.0000      -0.765406       -20.8278 
  47   2.0000      -0.764420       -20.8009 
  48   2.0000      -0.755027       -20.5453 
  49   2.0000      -0.748119       -20.3574 
  50   2.0000      -0.729155       -19.8413 
  51   2.0000      -0.704077       -19.1589 
  52   2.0000      -0.686148       -18.6710 
  53   2.0000      -0.669987       -18.2313 
  54   2.0000      -0.658788       -17.9265 
  55   2.0000      -0.651279       -17.7222 
  56   2.0000      -0.621153       -16.9024 
  57   2.0000      -0.585198       -15.9241 
  58   2.0000      -0.582668       -15.8552 
  59   2.0000      -0.579425       -15.7670 
  60   2.0000      -0.575557       -15.6617 
  61   2.0000      -0.573134       -15.5958 
  62   2.0000      -0.551766       -15.0143 
  63   2.0000      -0.541495       -14.7348 
  64   2.0000      -0.538548       -14.6546 
  65   2.0000      -0.536624       -14.6023 
  66   2.0000      -0.526660       -14.3311 
  67   2.0000      -0.520019       -14.1504 
  68   2.0000      -0.515572       -14.0294 
  69   2.0000      -0.508534       -13.8379 
  70   2.0000      -0.501908       -13.6576 
  71   2.0000      -0.498642       -13.5687 
  72   2.0000      -0.491764       -13.3816 
  73   2.0000      -0.487998       -13.2791 
  74   2.0000      -0.484847       -13.1934 
  75   2.0000      -0.481812       -13.1108 
  76   2.0000      -0.479060       -13.0359 
  77   2.0000      -0.471234       -12.8229 
  78   2.0000      -0.467159       -12.7120 
  79   2.0000      -0.465913       -12.6781 
  80   2.0000      -0.464836       -12.6488 
  81   2.0000      -0.461815       -12.5666 
  82   2.0000      -0.457189       -12.4408 
  83   2.0000      -0.452581       -12.3154 
  84   2.0000      -0.447071       -12.1654 
  85   2.0000      -0.445280       -12.1167 
  86   2.0000      -0.439183       -11.9508 
  87   2.0000      -0.434280       -11.8174 
  88   2.0000      -0.434175       -11.8145 
  89   2.0000      -0.424545       -11.5525 
  90   2.0000      -0.423728       -11.5302 
  91   2.0000      -0.422849       -11.5063 
  92   2.0000      -0.422006       -11.4834 
  93   2.0000      -0.420386       -11.4393 
  94   2.0000      -0.418615       -11.3911 
  95   2.0000      -0.418543       -11.3891 
  96   2.0000      -0.417218       -11.3531 
  97   2.0000      -0.412734       -11.2311 
  98   2.0000      -0.411051       -11.1853 
  99   2.0000      -0.406592       -11.0639 
 100   2.0000      -0.404122       -10.9967 
 101   2.0000      -0.400267       -10.8918 
 102   2.0000      -0.397258       -10.8099 
 103   2.0000      -0.386635       -10.5209 
 104   2.0000      -0.383139       -10.4257 
 105   2.0000      -0.380934       -10.3657 
 106   2.0000      -0.378981       -10.3126 
 107   2.0000      -0.374381       -10.1874 
 108   2.0000      -0.373726       -10.1696 
 109   2.0000      -0.369771       -10.0620 
 110   2.0000      -0.362078        -9.8526 
 111   2.0000      -0.354847        -9.6559 
 112   2.0000      -0.329288        -8.9604 
 113   2.0000      -0.314483        -8.5575 
 114   2.0000      -0.286569        -7.7979 
 115   2.0000      -0.280962        -7.6454 
 116   2.0000      -0.272096        -7.4041 
 117   2.0000      -0.264875        -7.2076 
 118   2.0000      -0.256889        -6.9903 
 119   0.0000       0.043951         1.1960 
 120   0.0000       0.048531         1.3206 
 121   0.0000       0.056682         1.5424 
 122   0.0000       0.063773         1.7354 
 123   0.0000       0.067536         1.8378 
 124   0.0000       0.122547         3.3347 
 125   0.0000       0.130517         3.5516 
 126   0.0000       0.134753         3.6668 
 127   0.0000       0.138712         3.7745 
 128   0.0000       0.141675         3.8552 
 129   0.0000       0.144512         3.9324 
 130   0.0000       0.150917         4.1066 
 131   0.0000       0.153870         4.1870 
 132   0.0000       0.160199         4.3592 
 133   0.0000       0.162999         4.4354 
 134   0.0000       0.165890         4.5141 
 135   0.0000       0.167401         4.5552 
 136   0.0000       0.168198         4.5769 
 137   0.0000       0.172406         4.6914 
 138   0.0000       0.174691         4.7536 
 139   0.0000       0.177483         4.8296 
 140   0.0000       0.179000         4.8708 
 141   0.0000       0.182222         4.9585 
 142   0.0000       0.184321         5.0156 
 143   0.0000       0.185799         5.0559 
 144   0.0000       0.188042         5.1169 
 145   0.0000       0.191861         5.2208 
 146   0.0000       0.192691         5.2434 
 147   0.0000       0.197955         5.3866 
 148   0.0000       0.198555         5.4030 
 149   0.0000       0.201009         5.4697 
 150   0.0000       0.204244         5.5578 
 151   0.0000       0.208599         5.6763 
 152   0.0000       0.209984         5.7140 
 153   0.0000       0.211274         5.7491 
 154   0.0000       0.216515         5.8917 
 155   0.0000       0.217479         5.9179 
 156   0.0000       0.219272         5.9667 
 157   0.0000       0.221693         6.0326 
 158   0.0000       0.223708         6.0874 
 159   0.0000       0.224324         6.1042 
 160   0.0000       0.227438         6.1889 
 161   0.0000       0.229291         6.2393 
 162   0.0000       0.231981         6.3125 
 163   0.0000       0.235323         6.4035 
 164   0.0000       0.242555         6.6003 
 165   0.0000       0.244310         6.6480 
 166   0.0000       0.244777         6.6607 
 167   0.0000       0.245962         6.6930 
 168   0.0000       0.246312         6.7025 
 169   0.0000       0.251612         6.8467 
 170   0.0000       0.255094         6.9415 
 171   0.0000       0.257257         7.0003 
 172   0.0000       0.259409         7.0589 
 173   0.0000       0.261672         7.1205 
 174   0.0000       0.264548         7.1987 
 175   0.0000       0.265826         7.2335 
 176   0.0000       0.269799         7.3416 
 177   0.0000       0.272702         7.4206 
 178   0.0000       0.278467         7.5775 
 179   0.0000       0.279146         7.5960 
 180   0.0000       0.280879         7.6431 
 181   0.0000       0.281952         7.6723 
 182   0.0000       0.285438         7.7672 
 183   0.0000       0.287089         7.8121 
 184   0.0000       0.295157         8.0316 
 185   0.0000       0.296274         8.0620 
 186   0.0000       0.298654         8.1268 
 187   0.0000       0.301662         8.2086 
 188   0.0000       0.306700         8.3457 
 189   0.0000       0.312373         8.5001 
 190   0.0000       0.314307         8.5527 
 191   0.0000       0.320560         8.7229 
 192   0.0000       0.327097         8.9008 
 193   0.0000       0.335917         9.1408 
 194   0.0000       0.354319         9.6415 
 195   0.0000       0.360626         9.8131 
 196   0.0000       0.368507        10.0276 
 197   0.0000       0.377998        10.2858 
 198   0.0000       0.390921        10.6375 
 199   0.0000       0.398682        10.8487 
 200   0.0000       0.420946        11.4545 
 201   0.0000       0.425674        11.5832 
 202   0.0000       0.440705        11.9922 
 203   0.0000       0.449079        12.2201 
 204   0.0000       0.461053        12.5459 
 205   0.0000       0.491866        13.3844 
 206   0.0000       0.494269        13.4498 
 207   0.0000       0.501373        13.6430 
 208   0.0000       0.504493        13.7280 
 209   0.0000       0.505855        13.7650 
 210   0.0000       0.514716        14.0061 
 211   0.0000       0.516851        14.0642 
 212   0.0000       0.520938        14.1754 
 213   0.0000       0.522064        14.2061 
 214   0.0000       0.526528        14.3275 
 215   0.0000       0.527128        14.3439 
 216   0.0000       0.531704        14.4684 
 217   0.0000       0.532100        14.4792 
 218   0.0000       0.537315        14.6211 
 219   0.0000       0.552179        15.0255 
 220   0.0000       0.553805        15.0698 
 221   0.0000       0.557932        15.1821 
 222   0.0000       0.560612        15.2550 
 223   0.0000       0.561276        15.2731 
 224   0.0000       0.563364        15.3299 
 225   0.0000       0.567445        15.4410 
 226   0.0000       0.569954        15.5092 
 227   0.0000       0.571175        15.5424 
 228   0.0000       0.579942        15.7810 
 229   0.0000       0.581900        15.8343 
 230   0.0000       0.583901        15.8888 
 231   0.0000       0.586662        15.9639 
 232   0.0000       0.595366        16.2007 
 233   0.0000       0.595897        16.2152 
 234   0.0000       0.603760        16.4291 
 235   0.0000       0.606039        16.4912 
 236   0.0000       0.608563        16.5598 
 237   0.0000       0.612559        16.6686 
 238   0.0000       0.623262        16.9598 
 239   0.0000       0.623264        16.9599 
 240   0.0000       0.631524        17.1846 
 241   0.0000       0.640467        17.4280 
 242   0.0000       0.642051        17.4711 
 243   0.0000       0.645387        17.5619 
 244   0.0000       0.657631        17.8950 
 245   0.0000       0.659378        17.9426 
 246   0.0000       0.661722        18.0064 
 247   0.0000       0.667627        18.1670 
 248   0.0000       0.668656        18.1951 
 249   0.0000       0.672254        18.2930 
 250   0.0000       0.673986        18.3401 
 251   0.0000       0.680162        18.5082 
 252   0.0000       0.685764        18.6606 
 253   0.0000       0.690286        18.7836 
 254   0.0000       0.698643        19.0110 
 255   0.0000       0.705644        19.2016 
 256   0.0000       0.715035        19.4571 
 257   0.0000       0.718232        19.5441 
 258   0.0000       0.720747        19.6125 
 259   0.0000       0.723430        19.6855 
 260   0.0000       0.726706        19.7747 
 261   0.0000       0.730852        19.8875 
 262   0.0000       0.738814        20.1042 
 263   0.0000       0.739074        20.1112 
 264   0.0000       0.745983        20.2992 
 265   0.0000       0.749040        20.3824 
 266   0.0000       0.750716        20.4280 
 267   0.0000       0.756410        20.5829 
 268   0.0000       0.757490        20.6123 
 269   0.0000       0.763131        20.7658 
 270   0.0000       0.784064        21.3355 
 271   0.0000       0.790751        21.5174 
 272   0.0000       0.794629        21.6229 
 273   0.0000       0.801583        21.8122 
 274   0.0000       0.806351        21.9419 
 275   0.0000       0.813683        22.1414 
 276   0.0000       0.814792        22.1716 
 277   0.0000       0.820284        22.3211 
 278   0.0000       0.829027        22.5590 
 279   0.0000       0.834665        22.7124 
 280   0.0000       0.842505        22.9257 
 281   0.0000       0.860435        23.4136 
 282   0.0000       0.875508        23.8238 
 283   0.0000       0.885953        24.1080 
 284   0.0000       0.906282        24.6612 
 285   0.0000       0.923088        25.1185 
 286   0.0000       0.930132        25.3102 
 287   0.0000       0.934298        25.4235 
 288   0.0000       0.937058        25.4986 
 289   0.0000       0.945159        25.7191 
 290   0.0000       0.954757        25.9803 
 291   0.0000       0.961819        26.1724 
 292   0.0000       0.976628        26.5754 
 293   0.0000       0.982665        26.7397 
 294   0.0000       0.985083        26.8055 
 295   0.0000       0.991204        26.9720 
 296   0.0000       0.992226        26.9998 
 297   0.0000       0.993218        27.0268 
 298   0.0000       0.999646        27.2018 
 299   0.0000       1.002428        27.2775 
 300   0.0000       1.009169        27.4609 
 301   0.0000       1.012800        27.5597 
 302   0.0000       1.015592        27.6357 
 303   0.0000       1.016666        27.6649 
 304   0.0000       1.020970        27.7820 
 305   0.0000       1.022019        27.8105 
 306   0.0000       1.024560        27.8797 
 307   0.0000       1.028293        27.9813 
 308   0.0000       1.028846        27.9963 
 309   0.0000       1.034823        28.1590 
 310   0.0000       1.036984        28.2178 
 311   0.0000       1.039965        28.2989 
 312   0.0000       1.043339        28.3907 
 313   0.0000       1.044361        28.4185 
 314   0.0000       1.045227        28.4421 
 315   0.0000       1.047498        28.5039 
 316   0.0000       1.047683        28.5089 
 317   0.0000       1.050375        28.5821 
 318   0.0000       1.051953        28.6251 
 319   0.0000       1.055318        28.7167 
 320   0.0000       1.058851        28.8128 
 321   0.0000       1.060441        28.8561 
 322   0.0000       1.064929        28.9782 
 323   0.0000       1.072718        29.1901 
 324   0.0000       1.075143        29.2561 
 325   0.0000       1.082441        29.4547 
 326   0.0000       1.086428        29.5632 
 327   0.0000       1.088521        29.6202 
 328   0.0000       1.090234        29.6668 
 329   0.0000       1.093797        29.7637 
 330   0.0000       1.095277        29.8040 
 331   0.0000       1.096644        29.8412 
 332   0.0000       1.101109        29.9627 
 333   0.0000       1.104556        30.0565 
 334   0.0000       1.115762        30.3614 
 335   0.0000       1.119585        30.4655 
 336   0.0000       1.129302        30.7299 
 337   0.0000       1.129660        30.7396 
 338   0.0000       1.131732        30.7960 
 339   0.0000       1.138799        30.9883 
 340   0.0000       1.145120        31.1603 
 341   0.0000       1.149060        31.2675 
 342   0.0000       1.167660        31.7736 
 343   0.0000       1.179181        32.0872 
 344   0.0000       1.181593        32.1528 
 345   0.0000       1.186889        32.2969 
 346   0.0000       1.190893        32.4059 
 347   0.0000       1.193242        32.4698 
 348   0.0000       1.194889        32.5146 
 349   0.0000       1.198192        32.6045 
 350   0.0000       1.205962        32.8159 
 351   0.0000       1.211428        32.9646 
 352   0.0000       1.219269        33.1780 
 353   0.0000       1.227865        33.4119 
 354   0.0000       1.237534        33.6750 
 355   0.0000       1.252029        34.0695 
 356   0.0000       1.257299        34.2129 
 357   0.0000       1.275111        34.6975 
 358   0.0000       1.282078        34.8871 
 359   0.0000       1.304117        35.4868 
 360   0.0000       1.334612        36.3166 
 361   0.0000       1.347828        36.6763 
 362   0.0000       1.359591        36.9964 
 363   0.0000       1.367537        37.2126 
 364   0.0000       1.378729        37.5171 
 365   0.0000       1.403818        38.1998 
 366   0.0000       1.420746        38.6605 
 367   0.0000       1.433880        39.0178 
 368   0.0000       1.441402        39.2225 
 369   0.0000       1.445707        39.3397 
 370   0.0000       1.465891        39.8889 
 371   0.0000       1.469971        39.9999 
 372   0.0000       1.473746        40.1027 
 373   0.0000       1.478985        40.2452 
 374   0.0000       1.481775        40.3212 
 375   0.0000       1.486841        40.4590 
 376   0.0000       1.496118        40.7114 
 377   0.0000       1.502325        40.8804 
 378   0.0000       1.512063        41.1453 
 379   0.0000       1.528088        41.5814 
 380   0.0000       1.529373        41.6164 
 381   0.0000       1.534284        41.7500 
 382   0.0000       1.540975        41.9321 
 383   0.0000       1.543224        41.9933 
 384   0.0000       1.584096        43.1054 
 385   0.0000       1.589694        43.2578 
 386   0.0000       1.613703        43.9111 
 387   0.0000       1.626667        44.2639 
 388   0.0000       1.627178        44.2778 
 389   0.0000       1.640590        44.6427 
 390   0.0000       1.651934        44.9514 
 391   0.0000       1.656862        45.0855 
 392   0.0000       1.671194        45.4755 
 393   0.0000       1.676553        45.6213 
 394   0.0000       1.682180        45.7744 
 395   0.0000       1.693288        46.0767 
 396   0.0000       1.732975        47.1566 
 397   0.0000       1.749187        47.5978 
 398   0.0000       1.763814        47.9958 
 399   0.0000       1.787186        48.6318 
 400   0.0000       1.793561        48.8053 
 401   0.0000       1.805915        49.1414 
 402   0.0000       1.808667        49.2163 
 403   0.0000       1.841933        50.1215 
 404   0.0000       1.847901        50.2839 
 405   0.0000       1.849549        50.3288 
 406   0.0000       1.856951        50.5302 
 407   0.0000       1.862075        50.6696 
 408   0.0000       1.866026        50.7771 
 409   0.0000       1.866803        50.7983 
 410   0.0000       1.869837        50.8808 
 411   0.0000       1.882537        51.2264 
 412   0.0000       1.891542        51.4715 
 413   0.0000       1.893085        51.5135 
 414   0.0000       1.897612        51.6366 
 415   0.0000       1.899133        51.6780 
 416   0.0000       1.912132        52.0318 
 417   0.0000       1.915187        52.1149 
 418   0.0000       1.917583        52.1801 
 419   0.0000       1.935398        52.6648 
 420   0.0000       1.945527        52.9405 
 421   0.0000       1.953249        53.1506 
 422   0.0000       1.957915        53.2776 
 423   0.0000       1.966589        53.5136 
 424   0.0000       1.979245        53.8580 
 425   0.0000       1.992010        54.2054 
 426   0.0000       1.997173        54.3458 
 427   0.0000       2.000859        54.4462 
 428   0.0000       2.005201        54.5643 
 429   0.0000       2.012162        54.7537 
 430   0.0000       2.015843        54.8539 
 431   0.0000       2.024880        55.0998 
 432   0.0000       2.027916        55.1824 
 433   0.0000       2.040548        55.5261 
 434   0.0000       2.044728        55.6399 
 435   0.0000       2.048809        55.7509 
 436   0.0000       2.055343        55.9287 
 437   0.0000       2.067514        56.2599 
 438   0.0000       2.074313        56.4449 
 439   0.0000       2.080276        56.6072 
 440   0.0000       2.083882        56.7053 
 441   0.0000       2.089834        56.8673 
 442   0.0000       2.097250        57.0691 
 443   0.0000       2.106505        57.3209 
 444   0.0000       2.119228        57.6671 
 445   0.0000       2.121844        57.7383 
 446   0.0000       2.133038        58.0429 
 447   0.0000       2.135915        58.1212 
 448   0.0000       2.137778        58.1719 
 449   0.0000       2.142151        58.2909 
 450   0.0000       2.151332        58.5407 
 451   0.0000       2.159810        58.7714 
 452   0.0000       2.161276        58.8113 
 453   0.0000       2.193299        59.6827 
 454   0.0000       2.197308        59.7918 
 455   0.0000       2.204590        59.9899 
 456   0.0000       2.206060        60.0300 
 457   0.0000       2.218491        60.3682 
 458   0.0000       2.225144        60.5493 
 459   0.0000       2.231355        60.7183 
 460   0.0000       2.236946        60.8704 
 461   0.0000       2.246994        61.1438 
 462   0.0000       2.266718        61.6805 
 463   0.0000       2.271170        61.8017 
 464   0.0000       2.282992        62.1234 
 465   0.0000       2.289342        62.2962 
 466   0.0000       2.303374        62.6780 
 467   0.0000       2.318371        63.0861 
 468   0.0000       2.340083        63.6769 
 469   0.0000       2.350046        63.9480 
 470   0.0000       2.351376        63.9842 
 471   0.0000       2.355376        64.0930 
 472   0.0000       2.358008        64.1647 
 473   0.0000       2.364370        64.3378 
 474   0.0000       2.373793        64.5942 
 475   0.0000       2.383190        64.8499 
 476   0.0000       2.387010        64.9538 
 477   0.0000       2.392053        65.0911 
 478   0.0000       2.407309        65.5062 
 479   0.0000       2.411013        65.6070 
 480   0.0000       2.412011        65.6341 
 481   0.0000       2.419153        65.8285 
 482   0.0000       2.422134        65.9096 
 483   0.0000       2.423404        65.9442 
 484   0.0000       2.427090        66.0445 
 485   0.0000       2.450592        66.6840 
 486   0.0000       2.461245        66.9739 
 487   0.0000       2.483471        67.5787 
 488   0.0000       2.489860        67.7525 
 489   0.0000       2.495670        67.9106 
 490   0.0000       2.507447        68.2311 
 491   0.0000       2.510539        68.3152 
 492   0.0000       2.524858        68.7049 
 493   0.0000       2.529072        68.8195 
 494   0.0000       2.530823        68.8672 
 495   0.0000       2.536283        69.0158 
 496   0.0000       2.544407        69.2368 
 497   0.0000       2.548372        69.3447 
 498   0.0000       2.555286        69.5329 
 499   0.0000       2.557718        69.5991 
 500   0.0000       2.565310        69.8056 
 501   0.0000       2.567925        69.8768 
 502   0.0000       2.574373        70.0522 
 503   0.0000       2.592409        70.5430 
 504   0.0000       2.608062        70.9690 
 505   0.0000       2.615574        71.1734 
 506   0.0000       2.626545        71.4719 
 507   0.0000       2.637719        71.7760 
 508   0.0000       2.644870        71.9706 
 509   0.0000       2.673998        72.7632 
 510   0.0000       2.687377        73.1273 
 511   0.0000       2.696421        73.3734 
 512   0.0000       2.710192        73.7481 
 513   0.0000       2.717607        73.9499 
 514   0.0000       2.767074        75.2959 
 515   0.0000       2.783806        75.7512 
 516   0.0000       2.800033        76.1928 
 517   0.0000       2.804654        76.3185 
 518   0.0000       2.824055        76.8464 
 519   0.0000       2.850269        77.5598 
 520   0.0000       2.874483        78.2187 
 521   0.0000       2.931250        79.7634 
 522   0.0000       2.943117        80.0863 
 523   0.0000       2.949256        80.2533 
 524   0.0000       2.964154        80.6587 
 525   0.0000       2.969633        80.8078 
 526   0.0000       2.973708        80.9187 
 527   0.0000       2.991394        81.4000 
 528   0.0000       3.059128        83.2431 
 529   0.0000       3.107843        84.5687 
 530   0.0000       3.117383        84.8283 
 531   0.0000       3.125704        85.0547 
 532   0.0000       3.135121        85.3110 
 533   0.0000       3.142220        85.5042 
 534   0.0000      13.353063       363.3553 
 535   0.0000      13.379222       364.0671 
 536   0.0000      13.424760       365.3063 
 537   0.0000      13.477257       366.7348 
 538   0.0000      13.526449       368.0734 
 539   0.0000      13.566608       369.1662 
 540   0.0000      13.727973       373.5571 
 541   0.0000      13.771812       374.7500 
 542   0.0000      13.792787       375.3208 
 543   0.0000      13.831132       376.3642 
 544   0.0000      13.844201       376.7199 
 545   0.0000      13.857536       377.0827 
 546   0.0000      13.880068       377.6958 
[...]
      dx2y2   :     0.037226
      dxy     :     0.034856
 19 C s       :     2.914749  s :     2.914749
      pz      :     1.076837  p :     3.216807
      px      :     1.047558
      py      :     1.092413
      dz2     :     0.019452  d :     0.087375
      dxz     :     0.014108
      dyz     :     0.016786
      dx2y2   :     0.019107
      dxy     :     0.017923
 20 C s       :     2.909695  s :     2.909695
      pz      :     1.082028  p :     3.236514
      px      :     1.061152
      py      :     1.093334
      dz2     :     0.020510  d :     0.088165
      dxz     :     0.014180
      dyz     :     0.015457
      dx2y2   :     0.018780
      dxy     :     0.019238
 21 C s       :     2.905525  s :     2.905525
      pz      :     1.062751  p :     3.174668
      px      :     1.060510
      py      :     1.051407
      dz2     :     0.012791  d :     0.087160
      dxz     :     0.021563
      dyz     :     0.012103
      dx2y2   :     0.020845
      dxy     :     0.019858
 22 C s       :     2.869179  s :     2.869179
      pz      :     1.025953  p :     3.094832
      px      :     1.064345
      py      :     1.004535
      dz2     :     0.020728  d :     0.107210
      dxz     :     0.023291
      dyz     :     0.016006
      dx2y2   :     0.025263
      dxy     :     0.021922
 23 C s       :     2.951735  s :     2.951735
      pz      :     1.128474  p :     3.325428
      px      :     1.070877
      py      :     1.126077
      dz2     :     0.011610  d :     0.068765
      dxz     :     0.012214
      dyz     :     0.014342
      dx2y2   :     0.013274
      dxy     :     0.017325
 24 C s       :     2.955200  s :     2.955200
      pz      :     1.120947  p :     3.330212
      px      :     1.132381
      py      :     1.076884
      dz2     :     0.014841  d :     0.067342
      dxz     :     0.007316
      dyz     :     0.015059
      dx2y2   :     0.019389
      dxy     :     0.010736
 25 C s       :     2.946935  s :     2.946935
      pz      :     1.086226  p :     3.336786
      px      :     1.131405
      py      :     1.119155
      dz2     :     0.017031  d :     0.068389
      dxz     :     0.014895
      dyz     :     0.014199
      dx2y2   :     0.012379
      dxy     :     0.009885
 26 C s       :     2.947088  s :     2.947088
      pz      :     1.082099  p :     3.336812
      px      :     1.130785
      py      :     1.123927
      dz2     :     0.018348  d :     0.068317
      dxz     :     0.011707
      dyz     :     0.016185
      dx2y2   :     0.013587
      dxy     :     0.008490
 27 C s       :     2.948819  s :     2.948819
      pz      :     1.100683  p :     3.334911
      px      :     1.129637
      py      :     1.104592
      dz2     :     0.019316  d :     0.068290
      dxz     :     0.007188
      dyz     :     0.014722
      dx2y2   :     0.013996
      dxy     :     0.013068
 28 H s       :     0.863793  s :     0.863793
 29 H s       :     0.862791  s :     0.862791
 30 H s       :     0.863155  s :     0.863155
 31 H s       :     0.867084  s :     0.867084
 32 H s       :     0.865290  s :     0.865290
 33 H s       :     0.868427  s :     0.868427
 34 H s       :     0.882451  s :     0.882451
 35 H s       :     0.867069  s :     0.867069
 36 H s       :     0.868344  s :     0.868344
 37 H s       :     0.867162  s :     0.867162
 38 H s       :     0.867780  s :     0.867780
 39 H s       :     0.867673  s :     0.867673
 40 H s       :     0.866285  s :     0.866285
 41 H s       :     0.872768  s :     0.872768
 42 H s       :     0.869651  s :     0.869651
 43 H s       :     0.874330  s :     0.874330
 44 H s       :     0.871409  s :     0.871409
 45 H s       :     0.872801  s :     0.872801
 46 H s       :     0.874333  s :     0.874333
 47 H s       :     0.871999  s :     0.871999
 48 H s       :     0.871645  s :     0.871645
 49 H s       :     0.869326  s :     0.869326
 50 H s       :     0.868674  s :     0.868674
 51 H s       :     0.869908  s :     0.869908
 52 H s       :     0.866717  s :     0.866717
 53 H s       :     0.868514  s :     0.868514
 54 H s       :     0.866138  s :     0.866138
 55 H s       :     0.871955  s :     0.871955
 56 H s       :     0.877020  s :     0.877020
 57 O s       :     3.554384  s :     3.554384
      pz      :     1.426597  p :     4.654197
      px      :     1.646289
      py      :     1.581311
      dz2     :     0.024453  d :     0.068695
      dxz     :     0.016798
      dyz     :     0.017091
      dx2y2   :     0.005432
      dxy     :     0.004921
 58 C s       :     2.946671  s :     2.946671
      pz      :     1.119045  p :     3.336817
      px      :     1.130112
      py      :     1.087660
      dz2     :     0.022036  d :     0.068378
      dxz     :     0.003815
      dyz     :     0.010810
      dx2y2   :     0.013897
      dxy     :     0.017820
 59 H s       :     0.866622  s :     0.866622
 60 H s       :     0.866697  s :     0.866697
 61 H s       :     0.868028  s :     0.868028
 62 C s       :     2.946654  s :     2.946654
      pz      :     1.126928  p :     3.336527
      px      :     1.116617
      py      :     1.092983
      dz2     :     0.011581  d :     0.068373
      dxz     :     0.004407
      dyz     :     0.021800
      dx2y2   :     0.017516
      dxy     :     0.013068
 63 H s       :     0.866332  s :     0.866332
 64 H s       :     0.866775  s :     0.866775
 65 H s       :     0.868077  s :     0.868077
 66 H s       :     0.874280  s :     0.874280
 67 H s       :     0.869567  s :     0.869567
 68 H s       :     0.874632  s :     0.874632
 69 H s       :     0.872849  s :     0.872849
 70 H s       :     0.861269  s :     0.861269
 71 H s       :     0.866511  s :     0.866511
 72 H s       :     0.871062  s :     0.871062
 73 H s       :     0.876132  s :     0.876132
 74 H s       :     0.872403  s :     0.872403
 75 H s       :     0.866476  s :     0.866476
 76 H s       :     0.872509  s :     0.872509
 77 H s       :     0.875333  s :     0.875333
 78 H s       :     0.872555  s :     0.872555
 79 H s       :     0.875042  s :     0.875042
 80 H s       :     0.872039  s :     0.872039


                      *****************************
                      * MAYER POPULATION ANALYSIS *
                      *****************************

  NA   - Mulliken gross atomic population
  ZA   - Total nuclear charge
  QA   - Mulliken gross atomic charge
  VA   - Mayer's total valence
  BVA  - Mayer's bonded valence
  FA   - Mayer's free valence

  ATOM       NA         ZA         QA         VA         BVA        FA
  0 C      5.7627     6.0000     0.2373     3.7377     3.7377     0.0000
  1 C      6.6559     6.0000    -0.6559     3.7176     3.7176     0.0000
  2 C      5.9878     6.0000     0.0122     3.7321     3.7321     0.0000
  3 C      6.4549     6.0000    -0.4549     3.6976     3.6976    -0.0000
  4 C      6.4795     6.0000    -0.4795     3.7102     3.7102     0.0000
  5 C      5.8730     6.0000     0.1270     3.7239     3.7239     0.0000
  6 C      6.2332     6.0000    -0.2332     3.8062     3.8062    -0.0000
  7 C      6.4811     6.0000    -0.4811     3.7179     3.7179     0.0000
  8 C      6.4665     6.0000    -0.4665     3.7087     3.7087    -0.0000
  9 C      5.8746     6.0000     0.1254     3.7299     3.7299    -0.0000
 10 C      6.2321     6.0000    -0.2321     3.7993     3.7993    -0.0000
 11 C      6.4708     6.0000    -0.4708     3.7196     3.7196    -0.0000
 12 C      6.4696     6.0000    -0.4696     3.7154     3.7154    -0.0000
 13 C      6.2362     6.0000    -0.2362     3.8083     3.8083    -0.0000
 14 C      5.8721     6.0000     0.1279     3.7308     3.7308    -0.0000
 15 C      6.4663     6.0000    -0.4663     3.7087     3.7087    -0.0000
 16 C      6.4808     6.0000    -0.4808     3.7161     3.7161    -0.0000
 17 C      6.2320     6.0000    -0.2320     3.8120     3.8120    -0.0000
 18 C      5.8742     6.0000     0.1258     3.7320     3.7320    -0.0000
 19 C      6.4654     6.0000    -0.4654     3.7058     3.7058    -0.0000
 20 C      6.4820     6.0000    -0.4820     3.7195     3.7195    -0.0000
 21 C      6.2153     6.0000    -0.2153     3.8108     3.8108     0.0000
 22 C      5.9038     6.0000     0.0962     3.7578     3.7578     0.0000
 23 C      6.6768     6.0000    -0.6768     3.7263     3.7263    -0.0000
 24 C      6.6621     6.0000    -0.6621     3.7097     3.7097    -0.0000
 25 C      6.7076     6.0000    -0.7076     3.7135     3.7135     0.0000
 26 C      6.7083     6.0000    -0.7083     3.7140     3.7140     0.0000
 27 C      6.6939     6.0000    -0.6939     3.7151     3.7151     0.0000
 28 H      0.7732     1.0000     0.2268     0.9101     0.9101    -0.0000
 29 H      0.7694     1.0000     0.2306     0.9153     0.9153     0.0000
 30 H      0.7666     1.0000     0.2334     0.9179     0.9179     0.0000
 31 H      0.7877     1.0000     0.2123     0.9126     0.9126    -0.0000
 32 H      0.7747     1.0000     0.2253     0.9109     0.9109     0.0000
 33 H      0.7893     1.0000     0.2107     0.9126     0.9126     0.0000
 34 H      0.7970     1.0000     0.2030     0.9141     0.9141     0.0000
 35 H      0.7763     1.0000     0.2237     0.9073     0.9073     0.0000
 36 H      0.7713     1.0000     0.2287     0.9165     0.9165    -0.0000
 37 H      0.7799     1.0000     0.2201     0.9097     0.9097    -0.0000
 38 H      0.7698     1.0000     0.2302     0.9165     0.9165     0.0000
 39 H      0.7808     1.0000     0.2192     0.9101     0.9101    -0.0000
 40 H      0.7755     1.0000     0.2245     0.9072     0.9072     0.0000
 41 H      0.7811     1.0000     0.2189     0.9053     0.9053     0.0000
 42 H      0.7717     1.0000     0.2283     0.9106     0.9106     0.0000
 43 H      0.8015     1.0000     0.1985     0.9232     0.9232    -0.0000
 44 H      0.7812     1.0000     0.2188     0.9061     0.9061     0.0000
 45 H      0.7756     1.0000     0.2244     0.9120     0.9120    -0.0000
 46 H      0.8017     1.0000     0.1983     0.9230     0.9230     0.0000
 47 H      0.7787     1.0000     0.2213     0.9134     0.9134    -0.0000
 48 H      0.7954     1.0000     0.2046     0.9213     0.9213     0.0000
 49 H      0.7832     1.0000     0.2168     0.9089     0.9089     0.0000
 50 H      0.7769     1.0000     0.2231     0.9180     0.9180    -0.0000
 51 H      0.7841     1.0000     0.2159     0.9093     0.9093     0.0000
 52 H      0.7804     1.0000     0.2196     0.9088     0.9088    -0.0000
 53 H      0.7725     1.0000     0.2275     0.9178     0.9178     0.0000
 54 H      0.7789     1.0000     0.2211     0.9082     0.9082    -0.0000
 55 H      0.7889     1.0000     0.2111     0.9089     0.9089     0.0000
 56 H      0.7832     1.0000     0.2168     0.9134     0.9134     0.0000
 57 O      8.4746     8.0000    -0.4746     1.9560     1.9560    -0.0000
 58 C      6.7080     6.0000    -0.7080     3.7107     3.7107     0.0000
 59 H      0.7758     1.0000     0.2242     0.9075     0.9075     0.0000
 60 H      0.7794     1.0000     0.2206     0.9095     0.9095     0.0000
 61 H      0.7696     1.0000     0.2304     0.9175     0.9175    -0.0000
 62 C      6.7066     6.0000    -0.7066     3.7106     3.7106    -0.0000
 63 H      0.7754     1.0000     0.2246     0.9075     0.9075    -0.0000
 64 H      0.7797     1.0000     0.2203     0.9096     0.9096    -0.0000
 65 H      0.7699     1.0000     0.2301     0.9174     0.9174     0.0000
 66 H      0.8015     1.0000     0.1985     0.9228     0.9228    -0.0000
 67 H      0.7717     1.0000     0.2283     0.9105     0.9105    -0.0000
 68 H      0.8023     1.0000     0.1977     0.9222     0.9222     0.0000
 69 H      0.7808     1.0000     0.2192     0.9060     0.9060    -0.0000
 70 H      0.7537     1.0000     0.2463     0.9049     0.9049     0.0000
 71 H      0.7689     1.0000     0.2311     0.9024     0.9024     0.0000
 72 H      0.7811     1.0000     0.2189     0.9059     0.9059    -0.0000
 73 H      0.7905     1.0000     0.2095     0.9093     0.9093     0.0000
 74 H      0.7812     1.0000     0.2188     0.9070     0.9070    -0.0000
 75 H      0.7659     1.0000     0.2341     0.9111     0.9111    -0.0000
 76 H      0.7741     1.0000     0.2259     0.9125     0.9125    -0.0000
 77 H      0.7894     1.0000     0.2106     0.9093     0.9093    -0.0000
 78 H      0.7733     1.0000     0.2267     0.9118     0.9118     0.0000
 79 H      0.7886     1.0000     0.2114     0.9094     0.9094    -0.0000
 80 H      0.7730     1.0000     0.2270     0.9109     0.9109    -0.0000

  Mayer bond orders larger than 0.100000
B(  0-C ,  1-C ) :   0.9699 B(  0-C ,  2-C ) :   0.9518 B(  0-C , 24-C ) :   0.9721 
B(  0-C , 57-O ) :   0.9066 B(  1-C , 29-H ) :   0.9266 B(  1-C , 32-H ) :   0.9210 
B(  1-C , 33-H ) :   0.9189 B(  2-C ,  3-C ) :   0.9709 B(  2-C , 34-H ) :   0.9029 
B(  2-C , 57-O ) :   0.9435 B(  3-C ,  4-C ) :   0.9478 B(  3-C , 55-H ) :   0.9100 
B(  3-C , 75-H ) :   0.9097 B(  4-C ,  5-C ) :   0.9785 B(  4-C , 70-H ) :   0.9132 
B(  4-C , 73-H ) :   0.9142 B(  5-C ,  6-C ) :   1.8635 B(  5-C , 25-C ) :   0.9716 
B(  6-C ,  7-C ) :   1.0043 B(  6-C , 48-H ) :   0.9183 B(  7-C ,  8-C ) :   0.9357 
B(  7-C , 56-H ) :   0.9146 B(  7-C , 71-H ) :   0.9115 B(  8-C ,  9-C ) :   0.9787 
B(  8-C , 47-H ) :   0.9243 B(  8-C , 74-H ) :   0.9117 B(  9-C , 10-C ) :   1.8642 
B(  9-C , 26-C ) :   0.9721 B( 10-C , 11-C ) :   0.9972 B( 10-C , 46-H ) :   0.9194 
B( 11-C , 12-C ) :   0.9385 B( 11-C , 45-H ) :   0.9145 B( 11-C , 72-H ) :   0.9153 
B( 12-C , 13-C ) :   0.9955 B( 12-C , 44-H ) :   0.9163 B( 12-C , 76-H ) :   0.9128 
B( 13-C , 14-C ) :   1.8707 B( 13-C , 43-H ) :   0.9187 B( 14-C , 15-C ) :   0.9752 
B( 14-C , 58-C ) :   0.9704 B( 15-C , 16-C ) :   0.9388 B( 15-C , 42-H ) :   0.9217 
B( 15-C , 77-H ) :   0.9141 B( 16-C , 17-C ) :   0.9996 B( 16-C , 41-H ) :   0.9123 
B( 16-C , 78-H ) :   0.9115 B( 17-C , 18-C ) :   1.8711 B( 17-C , 66-H ) :   0.9187 
B( 18-C , 19-C ) :   0.9741 B( 18-C , 62-C ) :   0.9716 B( 19-C , 20-C ) :   0.9371 
B( 19-C , 67-H ) :   0.9220 B( 19-C , 79-H ) :   0.9149 B( 20-C , 21-C ) :   1.0027 
B( 20-C , 69-H ) :   0.9131 B( 20-C , 80-H ) :   0.9130 B( 21-C , 22-C ) :   1.8748 
B( 21-C , 68-H ) :   0.9186 B( 22-C , 23-C ) :   0.9765 B( 22-C , 27-C ) :   0.9803 
B( 23-C , 49-H ) :   0.9175 B( 23-C , 50-H ) :   0.9317 B( 23-C , 51-H ) :   0.9176 
B( 24-C , 28-H ) :   0.9203 B( 24-C , 30-H ) :   0.9195 B( 24-C , 31-H ) :   0.9200 
B( 25-C , 35-H ) :   0.9139 B( 25-C , 36-H ) :   0.9234 B( 25-C , 37-H ) :   0.9177 
B( 26-C , 38-H ) :   0.9223 B( 26-C , 39-H ) :   0.9180 B( 26-C , 40-H ) :   0.9135 
B( 27-C , 52-H ) :   0.9169 B( 27-C , 53-H ) :   0.9230 B( 27-C , 54-H ) :   0.9169 
B( 58-C , 59-H ) :   0.9125 B( 58-C , 60-H ) :   0.9179 B( 58-C , 61-H ) :   0.9205 
B( 62-C , 63-H ) :   0.9123 B( 62-C , 64-H ) :   0.9178 B( 62-C , 65-H ) :   0.9208 


-------
TIMINGS
-------

Total SCF time: 0 days 0 hours 11 min 15 sec 

Total time                  ....     675.282 sec
Sum of individual times     ....     665.588 sec  ( 98.6%)

Fock matrix formation       ....     612.358 sec  ( 90.7%)
  Split-RI-J                ....      41.838 sec  (  6.8% of F)
  Chain of spheres X        ....     493.466 sec  ( 80.6% of F)
  XC integration            ....      63.639 sec  ( 10.4% of F)
    Basis function eval.    ....      21.801 sec  ( 34.3% of XC)
    Density eval.           ....      12.352 sec  ( 19.4% of XC)
    XC-Functional eval.     ....       5.163 sec  (  8.1% of XC)
    XC-Potential eval.      ....       6.821 sec  ( 10.7% of XC)
Diagonalization             ....       3.262 sec  (  0.5%)
Density matrix formation    ....       0.169 sec  (  0.0%)
Population analysis         ....       0.698 sec  (  0.1%)
Initial guess               ....       0.416 sec  (  0.1%)
Orbital Transformation      ....       0.000 sec  (  0.0%)
Orbital Orthonormalization  ....       0.000 sec  (  0.0%)
DIIS solution               ....       5.199 sec  (  0.8%)
SOSCF solution              ....       4.316 sec  (  0.6%)
Grid generation             ....      39.169 sec  (  5.8%)

Maximum memory used throughout the entire SCF-calculation: 221.2 MB


-------------------------------------------------------------------------------
                          DFT DISPERSION CORRECTION                            
                                                                               
                              DFTD3 V3.1  Rev 1                                
                          USING Becke-Johnson damping                          
-------------------------------------------------------------------------------
The PBEh-3c composite method is recognized
Using three-body term ABC
Active option DFTDOPT                   ...         4   

molecular C6(AA) [au] = 51356.855206 


            DFT-D V3
 parameters
 s6 scaling factor         :     1.0000 
 a1 scaling factor         :     0.4860 
 s8 scaling factor         :     0.0000 
 a2 scaling factor         :     4.5000 
 Damping factor alpha9(ATM):    16.0000 
 ad hoc parameters k1-k3   :    16.0000     1.3333    -4.0000 

 Edisp/kcal,au: -30.811417850271  -0.049101114544 
 E6   /kcal   : -30.953180195 
 E8   /kcal   :  -0.000000000 
 E6(ABC)      :   0.141762345 
 % E8         :   0.000000000 
 % E6(ABC)    :  -0.460096792 

-------------------------   ----------------
Dispersion correction           -0.049101115
-------------------------   ----------------

------------------   -----------------
gCP correction             0.118973219
------------------   -----------------

-------------------------   --------------------
FINAL SINGLE POINT ENERGY     -1245.708064065228
-------------------------   --------------------


                            ***************************************
                            *     ORCA property calculations      *
                            ***************************************

                                    ---------------------
                                    Active property flags
                                    ---------------------
   (+) Dipole Moment


------------------------------------------------------------------------------
                       ORCA ELECTRIC PROPERTIES CALCULATION
------------------------------------------------------------------------------

Dipole Moment Calculation                       ... on
Quadrupole Moment Calculation                   ... off
Polarizability Calculation                      ... off
GBWName                                         ... pbeh-3c.gbw
Electron density                                ... pbeh-3c.scfp
The origin for moment calculation is the CENTER OF MASS  = ( 0.491391,  0.012287 -0.151975)

-------------
DIPOLE MOMENT
-------------
                                X             Y             Z
Electronic contribution:     17.94615       0.15938      -5.30967
Nuclear contribution   :    -17.77064      -0.21152       6.17120
                        -----------------------------------------
Total Dipole Moment    :      0.17551      -0.05214       0.86153
                        -----------------------------------------
Magnitude (a.u.)       :      0.88077
Magnitude (Debye)      :      2.23874



--------------------
Rotational spectrum 
--------------------
 
Rotational constants in cm-1:     0.014010     0.000613     0.000604 
Rotational constants in MHz :   420.017109    18.363059    18.118053 

 Dipole components along the rotational axes: 
x,y,z [a.u.] :     0.175508     0.052141     0.861530 
x,y,z [Debye]:     0.446106     0.132531     2.189834 

 

Timings for individual modules:

Sum of individual times         ...      682.456 sec (=  11.374 min)
GTO integral calculation        ...        6.162 sec (=   0.103 min)   0.9 %
SCF iterations                  ...      676.294 sec (=  11.272 min)  99.1 %
                             ****ORCA TERMINATED NORMALLY****
TOTAL RUN TIME: 0 days 0 hours 11 minutes 25 seconds 149 msec
