
                                 *****************
                                 * O   R   C   A *
                                 *****************

                                            #,                                       
                                            ###                                      
                                            ####                                     
                                            #####                                    
                                            ######                                   
                                           ########,                                 
                                     ,,################,,,,,                         
                               ,,#################################,,                 
                          ,,##########################################,,             
                       ,#########################################, ''#####,          
                    ,#############################################,,   '####,        
                  ,##################################################,,,,####,       
                ,###########''''           ''''###############################       
              ,#####''   ,,,,##########,,,,          '''####'''          '####       
            ,##' ,,,,###########################,,,                        '##       
           ' ,,###''''                  '''############,,,                           
         ,,##''                                '''############,,,,        ,,,,,,###''
      ,#''                                            '''#######################'''  
     '                                                          ''''####''''         
             ,#######,   #######,   ,#######,      ##                                
            ,#'     '#,  ##    ##  ,#'     '#,    #''#        ######   ,####,        
            ##       ##  ##   ,#'  ##            #'  '#       #        #'  '#        
            ##       ##  #######   ##           ,######,      #####,   #    #        
            '#,     ,#'  ##    ##  '#,     ,#' ,#      #,         ##   #,  ,#        
             '#######'   ##     ##  '#######'  #'      '#     #####' # '####'        



                  #######################################################
                  #                        -***-                        #
                  #          Department of theory and spectroscopy      #
                  #    Directorship and core code : Frank Neese         #
                  #        Max Planck Institute fuer Kohlenforschung    #
                  #                Kaiser Wilhelm Platz 1               #
                  #                 D-45470 Muelheim/Ruhr               #
                  #                      Germany                        #
                  #                                                     #
                  #                  All rights reserved                #
                  #                        -***-                        #
                  #######################################################


                         Program Version 5.0.3 -  RELEASE  -


 With contributions from (in alphabetic order):
   Daniel Aravena         : Magnetic Suceptibility
   Michael Atanasov       : Ab Initio Ligand Field Theory (pilot matlab implementation)
   Alexander A. Auer      : GIAO ZORA, VPT2 properties, NMR spectrum
   Ute Becker             : Parallelization
   Giovanni Bistoni       : ED, misc. LED, open-shell LED, HFLD
   Martin Brehm           : Molecular dynamics
   Dmytro Bykov           : SCF Hessian
   Vijay G. Chilkuri      : MRCI spin determinant printing, contributions to CSF-ICE
   Dipayan Datta          : RHF DLPNO-CCSD density
   Achintya Kumar Dutta   : EOM-CC, STEOM-CC
   Dmitry Ganyushin       : Spin-Orbit,Spin-Spin,Magnetic field MRCI
   Miquel Garcia          : C-PCM and meta-GGA Hessian, CC/C-PCM, Gaussian charge scheme
   Yang Guo               : DLPNO-NEVPT2, F12-NEVPT2, CIM, IAO-localization
   Andreas Hansen         : Spin unrestricted coupled pair/coupled cluster methods
   Benjamin Helmich-Paris : MC-RPA, TRAH-SCF, COSX integrals
   Lee Huntington         : MR-EOM, pCC
   Robert Izsak           : Overlap fitted RIJCOSX, COSX-SCS-MP3, EOM
   Marcus Kettner         : VPT2
   Christian Kollmar      : KDIIS, OOCD, Brueckner-CCSD(T), CCSD density, CASPT2, CASPT2-K
   Simone Kossmann        : Meta GGA functionals, TD-DFT gradient, OOMP2, MP2 Hessian
   Martin Krupicka        : Initial AUTO-CI
   Lucas Lang             : DCDCAS
   Marvin Lechner         : AUTO-CI (C++ implementation), FIC-MRCC
   Dagmar Lenk            : GEPOL surface, SMD
   Dimitrios Liakos       : Extrapolation schemes; Compound Job, initial MDCI parallelization
   Dimitrios Manganas     : Further ROCIS development; embedding schemes
   Dimitrios Pantazis     : SARC Basis sets
   Anastasios Papadopoulos: AUTO-CI, single reference methods and gradients
   Taras Petrenko         : DFT Hessian,TD-DFT gradient, ASA, ECA, R-Raman, ABS, FL, XAS/XES, NRVS
   Peter Pinski           : DLPNO-MP2, DLPNO-MP2 Gradient
   Christoph Reimann      : Effective Core Potentials
   Marius Retegan         : Local ZFS, SOC
   Christoph Riplinger    : Optimizer, TS searches, QM/MM, DLPNO-CCSD(T), (RO)-DLPNO pert. Triples
   Tobias Risthaus        : Range-separated hybrids, TD-DFT gradient, RPA, STAB
   Michael Roemelt        : Original ROCIS implementation
   Masaaki Saitow         : Open-shell DLPNO-CCSD energy and density
   Barbara Sandhoefer     : DKH picture change effects
   Avijit Sen             : IP-ROCIS
   Kantharuban Sivalingam : CASSCF convergence, NEVPT2, FIC-MRCI
   Bernardo de Souza      : ESD, SOC TD-DFT
   Georgi Stoychev        : AutoAux, RI-MP2 NMR, DLPNO-MP2 response
   Willem Van den Heuvel  : Paramagnetic NMR
   Boris Wezisla          : Elementary symmetry handling
   Frank Wennmohs         : Technical directorship


 We gratefully acknowledge several colleagues who have allowed us to
 interface, adapt or use parts of their codes:
   Stefan Grimme, W. Hujo, H. Kruse, P. Pracht,  : VdW corrections, initial TS optimization,
                  C. Bannwarth, S. Ehlert          DFT functionals, gCP, sTDA/sTD-DF
   Ed Valeev, F. Pavosevic, A. Kumar             : LibInt (2-el integral package), F12 methods
   Garnet Chan, S. Sharma, J. Yang, R. Olivares  : DMRG
   Ulf Ekstrom                                   : XCFun DFT Library
   Mihaly Kallay                                 : mrcc  (arbitrary order and MRCC methods)
   Jiri Pittner, Ondrej Demel                    : Mk-CCSD
   Frank Weinhold                                : gennbo (NPA and NBO analysis)
   Christopher J. Cramer and Donald G. Truhlar   : smd solvation model
   Lars Goerigk                                  : TD-DFT with DH, B97 family of functionals
   V. Asgeirsson, H. Jonsson                     : NEB implementation
   FAccTs GmbH                                   : IRC, NEB, NEB-TS, DLPNO-Multilevel, CI-OPT
                                                   MM, QMMM, 2- and 3-layer-ONIOM, Crystal-QMMM,
                                                   LR-CPCM, SF, NACMEs, symmetry and pop. for TD-DFT,
                                                   nearIR, NL-DFT gradient (VV10), updates on ESD,
                                                   ML-optimized integration grids
   S Lehtola, MJT Oliveira, MAL Marques          : LibXC Library
   Liviu Ungur et al                             : ANISO software


 Your calculation uses the libint2 library for the computation of 2-el integrals
 For citations please refer to: http://libint.valeyev.net

 Your ORCA version has been built with support for libXC version: 5.1.0
 For citations please refer to: https://tddft.org/programs/libxc/

 This ORCA versions uses:
   CBLAS   interface :  Fast vector & matrix operations
   LAPACKE interface :  Fast linear algebra routines
   SCALAPACK package :  Parallel linear algebra routines
   Shared memory     :  Shared parallel matrices
   BLAS/LAPACK       :  OpenBLAS 0.3.15  USE64BITINT DYNAMIC_ARCH NO_AFFINITY Haswell SINGLE_THREADED
        Core in use  :  Haswell
   Copyright (c) 2011-2014, The OpenBLAS Project




***************************************
The coordinates will be read from file: octane2.xyz
***************************************


Your calculation utilizes the geometrical counterpoise correction gCP
Please cite in your paper:
H.Kruse, S. Grimme J.Chem.Phys., 136, (2012), 154101 
   

Your calculation utilizes the atom-pairwise dispersion correction
with the Becke-Johnson damping scheme (D3BJ)
Cite in your paper:
S.Grimme, S.Ehrlich, L.Goerigk, J Comput Chem, (2011), 32, 1456–1465 
S.Grimme, J.Antony, S.Ehrlich and H.Krieg, J.Chem.Phys., 132, (2010), 154104 
   

Your calculation employs the composite approach PBEh-3c.
Please cite in your paper:
S. Grimme, J. G. Brandenburg, C. Bannwarth, A. Hansen J.Chem.Phys., 143, (2015), 054107 
   

================================================================================

----- Orbital basis set information -----
Your calculation utilizes the basis: def2-mSVP

----- AuxJ basis set information -----
Your calculation utilizes the auxiliary basis: def2/J
   F. Weigend, Phys. Chem. Chem. Phys. 8, 1057 (2006).

================================================================================
                                        WARNINGS
                       Please study these warnings very carefully!
================================================================================


INFO   : the flag for use of the SHARK integral package has been found!

================================================================================
                                       INPUT FILE
================================================================================
NAME = pbeh-3c.inp
|  1> ! PBEh-3c def2/J TightSCF DefGrid3
|  2> 
|  3> %maxcore 60000
|  4> 
|  5> %pal
|  6> nprocs 4
|  7> end
|  8> 
|  9> *xyzfile 0 1 octane2.xyz
| 10> 
| 11>                          ****END OF INPUT****
================================================================================

                       ****************************
                       * Single Point Calculation *
                       ****************************

---------------------------------
CARTESIAN COORDINATES (ANGSTROEM)
---------------------------------
  C     -4.460470   -0.268215    0.000000
  C     -3.165922    0.536615    0.000000
  C     -1.923952   -0.346724    0.000000
  C     -0.620456    0.442250    0.000000
  C      0.620456   -0.442250    0.000000
  C      1.923952    0.346724    0.000000
  C      3.165922   -0.536615    0.000000
  C      4.460470    0.268215    0.000000
  H     -5.336991    0.380956    0.000000
  H     -4.517262   -0.908855   -0.881915
  H     -4.517262   -0.908855    0.881915
  H     -3.137930    1.188814    0.877663
  H     -3.137930    1.188814   -0.877663
  H     -1.947560   -1.000295    0.878471
  H     -1.947560   -1.000295   -0.878471
  H     -0.595439    1.095478    0.878561
  H     -0.595439    1.095478   -0.878561
  H      0.595439   -1.095478    0.878561
  H      0.595439   -1.095478   -0.878561
  H      1.947560    1.000295    0.878471
  H      1.947560    1.000295   -0.878471
  H      3.137930   -1.188814    0.877663
  H      3.137930   -1.188814   -0.877663
  H      4.517262    0.908855    0.881915
  H      5.336991   -0.380956    0.000000
  H      4.517262    0.908855   -0.881915

----------------------------
CARTESIAN COORDINATES (A.U.)
----------------------------
  NO LB      ZA    FRAG     MASS         X           Y           Z
   0 C     6.0000    0    12.011   -8.429067   -0.506854    0.000000
   1 C     6.0000    0    12.011   -5.982725    1.014056    0.000000
   2 C     6.0000    0    12.011   -3.635742   -0.655214    0.000000
   3 C     6.0000    0    12.011   -1.172492    0.835732    0.000000
   4 C     6.0000    0    12.011    1.172492   -0.835732    0.000000
   5 C     6.0000    0    12.011    3.635742    0.655214    0.000000
   6 C     6.0000    0    12.011    5.982725   -1.014056    0.000000
   7 C     6.0000    0    12.011    8.429067    0.506854    0.000000
   8 H     1.0000    0     1.008  -10.085451    0.719902    0.000000
   9 H     1.0000    0     1.008   -8.536388   -1.717487   -1.666578
  10 H     1.0000    0     1.008   -8.536388   -1.717487    1.666578
  11 H     1.0000    0     1.008   -5.929828    2.246533    1.658543
  12 H     1.0000    0     1.008   -5.929828    2.246533   -1.658543
  13 H     1.0000    0     1.008   -3.680355   -1.890284    1.660069
  14 H     1.0000    0     1.008   -3.680355   -1.890284   -1.660069
  15 H     1.0000    0     1.008   -1.125217    2.070154    1.660239
  16 H     1.0000    0     1.008   -1.125217    2.070154   -1.660239
  17 H     1.0000    0     1.008    1.125217   -2.070154    1.660239
  18 H     1.0000    0     1.008    1.125217   -2.070154   -1.660239
  19 H     1.0000    0     1.008    3.680355    1.890284    1.660069
  20 H     1.0000    0     1.008    3.680355    1.890284   -1.660069
  21 H     1.0000    0     1.008    5.929828   -2.246533    1.658543
  22 H     1.0000    0     1.008    5.929828   -2.246533   -1.658543
  23 H     1.0000    0     1.008    8.536388    1.717487    1.666578
  24 H     1.0000    0     1.008   10.085451   -0.719902    0.000000
  25 H     1.0000    0     1.008    8.536388    1.717487   -1.666578

--------------------------------
INTERNAL COORDINATES (ANGSTROEM)
--------------------------------
 C      0   0   0     0.000000000000     0.00000000     0.00000000
 C      1   0   0     1.524338804969     0.00000000     0.00000000
 C      2   1   0     1.524065937851   112.70848288     0.00000000
 C      3   2   1     1.523673818267   113.39250879   180.00000000
 C      4   3   2     1.523878241814   113.33389191   180.00000000
 C      5   4   3     1.523673818267   113.33389191   180.00000000
 C      6   5   4     1.524065937851   113.39250879   180.00000000
 C      7   6   5     1.524338804969   112.70848288   180.00000000
 H      1   2   3     1.090738719120   111.60597192   180.00000085
 H      1   2   3     1.091521517969   110.73671774   300.23846330
 H      1   2   3     1.091521517969   110.73671774    59.76153670
 H      2   1   3     1.093818558041   109.66681572   238.43979038
 H      2   1   3     1.093818558041   109.66681572   121.56020962
 H      3   2   1     1.095181928918   109.16670517   301.87562676
 H      3   2   1     1.095181928918   109.16670517    58.12437324
 H      4   3   2     1.095080766528   109.17312539    58.14592162
 H      4   3   2     1.095080766528   109.17312539   301.85407838
 H      5   4   3     1.095080766528   109.12490126   301.88101485
 H      5   4   3     1.095080766528   109.12490126    58.11898515
 H      6   5   4     1.095181928918   109.11435390    58.09517124
 H      6   5   4     1.095181928918   109.11435390   301.90482876
 H      7   6   5     1.093818558041   108.94943331   301.96616202
 H      7   6   5     1.093818558041   108.94943331    58.03383798
 H      8   7   6     1.091521517969   110.73671774    59.76153670
 H      8   7   6     1.090738719120   111.60597192   180.00000085
 H      8   7   6     1.091521517969   110.73671774   300.23846330

---------------------------
INTERNAL COORDINATES (A.U.)
---------------------------
 C      0   0   0     0.000000000000     0.00000000     0.00000000
 C      1   0   0     2.880582876700     0.00000000     0.00000000
 C      2   1   0     2.880067232576   112.70848288     0.00000000
 C      3   2   1     2.879326233951   113.39250879   180.00000000
 C      4   3   2     2.879712538470   113.33389191   180.00000000
 C      5   4   3     2.879326233951   113.33389191   180.00000000
 C      6   5   4     2.880067232576   113.39250879   180.00000000
 C      7   6   5     2.880582876700   112.70848288   180.00000000
 H      1   2   3     2.061197462801   111.60597192   180.00000085
 H      1   2   3     2.062676738244   110.73671774   300.23846330
 H      1   2   3     2.062676738244   110.73671774    59.76153670
 H      2   1   3     2.067017514898   109.66681572   238.43979038
 H      2   1   3     2.067017514898   109.66681572   121.56020962
 H      3   2   1     2.069593912475   109.16670517   301.87562676
 H      3   2   1     2.069593912475   109.16670517    58.12437324
 H      4   3   2     2.069402743262   109.17312539    58.14592162
 H      4   3   2     2.069402743262   109.17312539   301.85407838
 H      5   4   3     2.069402743262   109.12490126   301.88101485
 H      5   4   3     2.069402743262   109.12490126    58.11898515
 H      6   5   4     2.069593912475   109.11435390    58.09517124
 H      6   5   4     2.069593912475   109.11435390   301.90482876
 H      7   6   5     2.067017514898   108.94943331   301.96616202
 H      7   6   5     2.067017514898   108.94943331    58.03383798
 H      8   7   6     2.062676738244   110.73671774    59.76153670
 H      8   7   6     2.061197462801   111.60597192   180.00000085
 H      8   7   6     2.062676738244   110.73671774   300.23846330

---------------------
BASIS SET INFORMATION
---------------------
There are 2 groups of distinct atoms

 Group   1 Type C   : 8s4p1d contracted to 4s2p1d pattern {5111/31/1}
 Group   2 Type H   : 4s contracted to 2s pattern {31}

Atom   0C    basis set group =>   1
Atom   1C    basis set group =>   1
Atom   2C    basis set group =>   1
Atom   3C    basis set group =>   1
Atom   4C    basis set group =>   1
Atom   5C    basis set group =>   1
Atom   6C    basis set group =>   1
Atom   7C    basis set group =>   1
Atom   8H    basis set group =>   2
Atom   9H    basis set group =>   2
Atom  10H    basis set group =>   2
Atom  11H    basis set group =>   2
Atom  12H    basis set group =>   2
Atom  13H    basis set group =>   2
Atom  14H    basis set group =>   2
Atom  15H    basis set group =>   2
Atom  16H    basis set group =>   2
Atom  17H    basis set group =>   2
Atom  18H    basis set group =>   2
Atom  19H    basis set group =>   2
Atom  20H    basis set group =>   2
Atom  21H    basis set group =>   2
Atom  22H    basis set group =>   2
Atom  23H    basis set group =>   2
Atom  24H    basis set group =>   2
Atom  25H    basis set group =>   2
---------------------------------
AUXILIARY/J BASIS SET INFORMATION
---------------------------------
There are 2 groups of distinct atoms

 Group   1 Type C   : 12s5p4d2f1g contracted to 6s4p3d1f1g pattern {711111/2111/211/2/1}
 Group   2 Type H   : 5s2p1d contracted to 3s1p1d pattern {311/2/1}

Atom   0C    basis set group =>   1
Atom   1C    basis set group =>   1
Atom   2C    basis set group =>   1
Atom   3C    basis set group =>   1
Atom   4C    basis set group =>   1
Atom   5C    basis set group =>   1
Atom   6C    basis set group =>   1
Atom   7C    basis set group =>   1
Atom   8H    basis set group =>   2
Atom   9H    basis set group =>   2
Atom  10H    basis set group =>   2
Atom  11H    basis set group =>   2
Atom  12H    basis set group =>   2
Atom  13H    basis set group =>   2
Atom  14H    basis set group =>   2
Atom  15H    basis set group =>   2
Atom  16H    basis set group =>   2
Atom  17H    basis set group =>   2
Atom  18H    basis set group =>   2
Atom  19H    basis set group =>   2
Atom  20H    basis set group =>   2
Atom  21H    basis set group =>   2
Atom  22H    basis set group =>   2
Atom  23H    basis set group =>   2
Atom  24H    basis set group =>   2
Atom  25H    basis set group =>   2


           ************************************************************
           *        Program running with 4 parallel MPI-processes     *
           *              working on a common directory               *
           ************************************************************
------------------------------------------------------------------------------
                           ORCA GTO INTEGRAL CALCULATION
                           -- RI-GTO INTEGRALS CHOSEN --
------------------------------------------------------------------------------
------------------------------------------------------------------------------
                   ___                                                        
                  /   \      - P O W E R E D   B Y -                         
                 /     \                                                     
                 |  |  |   _    _      __       _____    __    __             
                 |  |  |  | |  | |    /  \     |  _  \  |  |  /  |          
                  \  \/   | |  | |   /    \    | | | |  |  | /  /          
                 / \  \   | |__| |  /  /\  \   | |_| |  |  |/  /          
                |  |  |   |  __  | /  /__\  \  |    /   |      \           
                |  |  |   | |  | | |   __   |  |    \   |  |\   \          
                \     /   | |  | | |  |  |  |  | |\  \  |  | \   \       
                 \___/    |_|  |_| |__|  |__|  |_| \__\ |__|  \__/        
                                                                              
                      - O R C A' S   B I G   F R I E N D -                    
                                      &                                       
                       - I N T E G R A L  F E E D E R -                       
                                                                              
 v1 FN, 2020, v2 2021                                                         
------------------------------------------------------------------------------


Reading SHARK input file pbeh-3c.SHARKINP.tmp ... ok
----------------------
SHARK INTEGRAL PACKAGE
----------------------

Number of atoms                             ...     26
Number of basis functions                   ...    156
Number of shells                            ...     92
Maximum angular momentum                    ...      2
Integral batch strategy                     ... SHARK/LIBINT Hybrid
RI-J (if used) integral strategy            ... SPLIT-RIJ (Revised 2003 algorithm where possible)
Printlevel                                  ...      1
Contraction scheme used                     ... SEGMENTED contraction
Coulomb Range Separation                    ... NOT USED
Exchange Range Separation                   ... NOT USED
Finite Nucleus Model                        ... NOT USED
Auxiliary Coulomb fitting basis             ... AVAILABLE
   # of basis functions in Aux-J            ...    590
   # of shells in Aux-J                     ...    210
   Maximum angular momentum in Aux-J        ...      4
Auxiliary J/K fitting basis                 ... NOT available
Auxiliary Correlation fitting basis         ... NOT available
Auxiliary 'external' fitting basis          ... NOT available
Integral threshold                          ...     2.500000e-11
Primitive cut-off                           ...     2.500000e-12
Primitive pair pre-selection threshold      ...     2.500000e-12

Calculating pre-screening integrals         ... done (  0.1 sec) Dimension = 92
Organizing shell pair data                  ... done (  0.1 sec)
Shell pair information
Total number of shell pairs                 ...      4278
Shell pairs after pre-screening             ...      3361
Total number of primitive shell pairs       ...     15734
Primitive shell pairs kept                  ...      8480
          la=0 lb=0:   1761 shell pairs
          la=1 lb=0:    938 shell pairs
          la=1 lb=1:    128 shell pairs
          la=2 lb=0:    394 shell pairs
          la=2 lb=1:    114 shell pairs
          la=2 lb=2:     26 shell pairs

Calculating one electron integrals          ... done (  0.0 sec)
Calculating RI/J V-Matrix + Cholesky decomp.... done (  0.5 sec)
Calculating Nuclear repulsion               ... done (  0.0 sec) ENN=    375.766051496500 Eh

SHARK setup successfully completed in   1.0 seconds

Maximum memory used throughout the entire GTOINT-calculation: 12.0 MB


           ************************************************************
           *        Program running with 4 parallel MPI-processes     *
           *              working on a common directory               *
           ************************************************************
-------------------------------------------------------------------------------
                                 ORCA SCF
-------------------------------------------------------------------------------

------------
SCF SETTINGS
------------
Hamiltonian:
 Density Functional     Method          .... DFT(GTOs)
 Exchange Functional    Exchange        .... PBE
   PBE kappa parameter   XKappa         ....  1.024500
   PBE mue parameter    XMuePBE         ....  0.123457
 Correlation Functional Correlation     .... PBE
   PBE beta parameter  CBetaPBE         ....  0.030000
 LDA part of GGA corr.  LDAOpt          .... PW91-LDA
 Gradients option       PostSCFGGA      .... off
 Hybrid DFT is turned on
   Fraction HF Exchange ScalHFX         ....  0.420000
   Scaling of DF-GGA-X  ScalDFX         ....  0.580000
   Scaling of DF-GGA-C  ScalDFC         ....  1.000000
   Scaling of DF-LDA-C  ScalLDAC        ....  1.000000
   Perturbative correction              ....  0.000000
   Density functional embedding theory  .... OFF
 RI-approximation to the Coulomb term is turned on
   Number of AuxJ basis functions       .... 590
   RIJ-ON(X) (HFX calculated with O(N)) .... on
   Number of AuxJ basis functions       .... 590
   RIJ-COSX (HFX calculated with COS-X)).... on


General Settings:
 Integral files         IntName         .... pbeh-3c
 Hartree-Fock type      HFTyp           .... RHF
 Total Charge           Charge          ....    0
 Multiplicity           Mult            ....    1
 Number of Electrons    NEL             ....   66
 Basis Dimension        Dim             ....  156
 Nuclear Repulsion      ENuc            ....    375.7660514965 Eh

Convergence Acceleration:
 DIIS                   CNVDIIS         .... on
   Start iteration      DIISMaxIt       ....    12
   Startup error        DIISStart       ....  0.200000
   # of expansion vecs  DIISMaxEq       ....     5
   Bias factor          DIISBfac        ....   1.050
   Max. coefficient     DIISMaxC        ....  10.000
 Trust-Rad. Augm. Hess. CNVTRAH         .... auto
   Auto Start mean grad. ratio tolernc. ....  1.125000
   Auto Start start iteration           ....    20
   Auto Start num. interpolation iter.  ....    10
   Max. Number of Micro iterations      ....    16
   Max. Number of Macro iterations      .... Maxiter - #DIIS iter
   Number of Davidson start vectors     ....     2
   Converg. threshold I  (grad. norm)   ....   1.000e-05
   Converg. threshold II (energy diff.) ....   1.000e-08
   Grad. Scal. Fac. for Micro threshold ....   0.100
   Minimum threshold for Micro iter.    ....   0.010
   NR start threshold (gradient norm)   ....   0.001
   Initial trust radius                 ....   0.400
   Minimum AH scaling param. (alpha)    ....   1.000
   Maximum AH scaling param. (alpha)    .... 1000.000
   Orbital update algorithm             .... Taylor
   White noise on init. David. guess    .... on
   Maximum white noise                  ....   0.010
   Quad. conv. algorithm                .... NR
   COSX micro iterations for RIJONX calc.... off
 SOSCF                  CNVSOSCF        .... on
   Start iteration      SOSCFMaxIt      ....   150
   Startup grad/error   SOSCFStart      ....  0.003300
 Level Shifting         CNVShift        .... on
   Level shift para.    LevelShift      ....    0.2500
   Turn off err/grad.   ShiftErr        ....    0.0010
 Zerner damping         CNVZerner       .... off
 Static damping         CNVDamp         .... on
   Fraction old density DampFac         ....    0.7000
   Max. Damping (<1)    DampMax         ....    0.9800
   Min. Damping (>=0)   DampMin         ....    0.0000
   Turn off err/grad.   DampErr         ....    0.1000
 Fernandez-Rico         CNVRico         .... off

SCF Procedure:
 Maximum # iterations   MaxIter         ....   125
 SCF integral mode      SCFMode         .... Direct
   Integral package                     .... SHARK and LIBINT hybrid scheme
 Reset frequency        DirectResetFreq ....    20
 Integral Threshold     Thresh          ....  2.500e-11 Eh
 Primitive CutOff       TCut            ....  2.500e-12 Eh

Convergence Tolerance:
 Convergence Check Mode ConvCheckMode   .... Total+1el-Energy
 Convergence forced     ConvForced      .... 0
 Energy Change          TolE            ....  1.000e-08 Eh
 1-El. energy change                    ....  1.000e-05 Eh
 Orbital Gradient       TolG            ....  1.000e-05
 Orbital Rotation angle TolX            ....  1.000e-05
 DIIS Error             TolErr          ....  5.000e-07


Diagonalization of the overlap matrix:
Smallest eigenvalue                        ... 3.579e-03
Time for diagonalization                   ...    0.008 sec
Threshold for overlap eigenvalues          ... 1.000e-08
Number of eigenvalues below threshold      ... 0
Time for construction of square roots      ...    0.263 sec
Total time needed                          ...    0.272 sec

--------------------------------
INITIAL GUESS: MINIMAL BASIS EHT
--------------------------------
The minimal basis has 58 functions
EHT matrix was diagonalized
Basis set overlap was calculated now projecting the orbitals
Using GuessMode=FMatrix for the initial guess
C*T matrix was formed
Effective Fockian was calculated
Effective Fockian was diagonalized
Initial density was built
                      ------------------
                      INITIAL GUESS DONE
                      ------------------
-------------------
DFT GRID GENERATION
-------------------

General Integration Accuracy     IntAcc      ... 4.959
Radial Grid Type                 RadialGrid  ... OptM3 with GC (2021)
Angular Grid (max. ang.)         AngularGrid ... 6 (Lebedev-590)
Angular grid pruning method      GridPruning ... 4 (adaptive)
Weight generation scheme         WeightScheme... Becke
Basis function cutoff            BFCut       ... 1.0000e-11
Integration weight cutoff        WCut        ... 1.0000e-14
Angular grids for H and He will be reduced by one unit
Partially contracted basis set               ... off
Rotationally invariant grid construction     ... off

Total number of grid points                  ...   269156
Total number of batches                      ...     4216
Average number of points per batch           ...       63
Average number of grid points per atom       ...    10352
Time for grid setup =    4.311 sec

--------------------
COSX GRID GENERATION
--------------------

GRIDX 1
-------
General Integration Accuracy     IntAcc      ... 4.020
Radial Grid Type                 RadialGrid  ... OptM3 with GC (2021)
Angular Grid (max. ang.)         AngularGrid ... 2 (Lebedev-110)
Angular grid pruning method      GridPruning ... 4 (adaptive)
Weight generation scheme         WeightScheme... Becke
Basis function cutoff            BFCut       ... 1.0000e-11
Integration weight cutoff        WCut        ... 1.0000e-14
Angular grids for H and He will be reduced by one unit
Partially contracted basis set               ... on
Rotationally invariant grid construction     ... off

Total number of grid points                  ...    27816
Total number of batches                      ...      450
Average number of points per batch           ...       61
Average number of grid points per atom       ...     1070
UseSFitting                                  ... on

GRIDX 2
-------
General Integration Accuracy     IntAcc      ... 4.338
Radial Grid Type                 RadialGrid  ... OptM3 with GC (2021)
Angular Grid (max. ang.)         AngularGrid ... 3 (Lebedev-194)
Angular grid pruning method      GridPruning ... 4 (adaptive)
Weight generation scheme         WeightScheme... Becke
Basis function cutoff            BFCut       ... 1.0000e-11
Integration weight cutoff        WCut        ... 1.0000e-14
Angular grids for H and He will be reduced by one unit
Partially contracted basis set               ... on
Rotationally invariant grid construction     ... off

Total number of grid points                  ...    60604
Total number of batches                      ...      956
Average number of points per batch           ...       63
Average number of grid points per atom       ...     2331
UseSFitting                                  ... on

GRIDX 3
-------
General Integration Accuracy     IntAcc      ... 4.871
Radial Grid Type                 RadialGrid  ... OptM3 with GC (2021)
Angular Grid (max. ang.)         AngularGrid ... 4 (Lebedev-302)
Angular grid pruning method      GridPruning ... 4 (adaptive)
Weight generation scheme         WeightScheme... Becke
Basis function cutoff            BFCut       ... 1.0000e-11
Integration weight cutoff        WCut        ... 1.0000e-14
Angular grids for H and He will be reduced by one unit
Partially contracted basis set               ... on
Rotationally invariant grid construction     ... off

Total number of grid points                  ...   121256
Total number of batches                      ...     1908
Average number of points per batch           ...       63
Average number of grid points per atom       ...     4664
UseSFitting                                  ... on

Time for X-Grid setup             =    3.863 sec

--------------
SCF ITERATIONS
--------------
ITER       Energy         Delta-E        Max-DP      RMS-DP      [F,P]     Damp
               ***  Starting incremental Fock matrix formation  ***
  0   -314.4544126858   0.000000000000 0.02350948  0.00184647  0.4001810 0.7000
  1   -314.6259513835  -0.171538697725 0.01723754  0.00141038  0.2835727 0.7000
  2   -314.7486301985  -0.122678814954 0.01258166  0.00105188  0.2000209 0.7000
                               ***Turning on DIIS***
  3   -314.8355556611  -0.086925462680 0.00945239  0.00077860  0.1409744 0.7000
  4   -314.8969980460  -0.061442384906 0.02495741  0.00201135  0.0992648 0.0000
                      *** Initiating the SOSCF procedure ***
                           *** Shutting down DIIS ***
                      *** Re-Reading the Fockian *** 
                      *** Removing any level shift *** 
ITER      Energy       Delta-E        Grad      Rot      Max-DP    RMS-DP
  5   -315.04265763  -0.1456595816  0.001512  0.001512  0.001710  0.000145
               *** Restarting incremental Fock matrix formation ***
  6   -315.04273742  -0.0000797893  0.000726  0.001454  0.001013  0.000082
  7   -315.04274716  -0.0000097442  0.000141  0.000301  0.000315  0.000020
  8   -315.04274751  -0.0000003444  0.000097  0.000092  0.000128  0.000007
  9   -315.04274777  -0.0000002610  0.000003  0.000004  0.000011  0.000000
 10   -315.04274777  -0.0000000026  0.000003  0.000002  0.000005  0.000000
                 **** Energy Check signals convergence ****
              ***Rediagonalizing the Fockian in SOSCF/NRSCF***

               *****************************************************
               *                     SUCCESS                       *
               *           SCF CONVERGED AFTER  11 CYCLES          *
               *****************************************************

Old exchange energy                            =    -20.122465812 Eh
New exchange energy                            =    -20.122447760 Eh
Exchange energy change after final integration =      0.000018052 Eh
Total energy after final integration           =   -315.042729719 Eh
Final COS-X integration done in                =     8.461 sec

----------------
TOTAL SCF ENERGY
----------------

Total Energy       :         -315.04272972 Eh           -8572.74851 eV

Components:
Nuclear Repulsion  :          375.76605150 Eh           10225.11410 eV
Electronic Energy  :         -690.80878122 Eh          -18797.86260 eV
One Electron Energy:        -1167.32567979 Eh          -31764.54663 eV
Two Electron Energy:          476.51689857 Eh           12966.68402 eV
Max COSX asymmetry :            0.00000068 Eh               0.00002 eV

Virial components:
Potential Energy   :         -627.39511761 Eh          -17072.28909 eV
Kinetic Energy     :          312.35238789 Eh            8499.54058 eV
Virial Ratio       :            2.00861316


DFT components:
N(Alpha)           :       32.999996964446 electrons
N(Beta)            :       32.999996964446 electrons
N(Total)           :       65.999993928891 electrons
E(X)               :      -26.645650210342 Eh       
E(C)               :       -2.784098082170 Eh       
E(XC)              :      -29.429748292512 Eh       
DFET-embed. en.    :        0.000000000000 Eh       

---------------
SCF CONVERGENCE
---------------

  Last Energy change         ...   -1.5664e-09  Tolerance :   1.0000e-08
  Last MAX-Density change    ...    9.0553e-16  Tolerance :   1.0000e-07
  Last RMS-Density change    ...    3.0681e-17  Tolerance :   5.0000e-09
  Last Orbital Gradient      ...    2.0776e-07  Tolerance :   1.0000e-05
  Last Orbital Rotation      ...    1.8132e-07  Tolerance :   1.0000e-05

             **** THE GBW FILE WAS UPDATED (pbeh-3c.gbw) ****
             **** DENSITY pbeh-3c.scfp WAS UPDATED ****
             **** ENERGY FILE WAS UPDATED (pbeh-3c.en.tmp) ****
             **** THE GBW FILE WAS UPDATED (pbeh-3c.gbw) ****
             **** DENSITY pbeh-3c.scfp WAS UPDATED ****
----------------
ORBITAL ENERGIES
----------------

  NO   OCC          E(Eh)            E(eV) 
   0   2.0000     -10.427128      -283.7366 
   1   2.0000     -10.427124      -283.7365 
   2   2.0000     -10.425360      -283.6885 
   3   2.0000     -10.425231      -283.6850 
   4   2.0000     -10.425046      -283.6799 
   5   2.0000     -10.424971      -283.6779 
   6   2.0000     -10.419378      -283.5257 
   7   2.0000     -10.419375      -283.5256 
   8   2.0000      -0.903049       -24.5732 
   9   2.0000      -0.877203       -23.8699 
  10   2.0000      -0.835481       -22.7346 
  11   2.0000      -0.780979       -21.2515 
  12   2.0000      -0.719377       -19.5753 
  13   2.0000      -0.663687       -18.0598 
  14   2.0000      -0.644357       -17.5338 
  15   2.0000      -0.639950       -17.4139 
  16   2.0000      -0.545736       -14.8502 
  17   2.0000      -0.522411       -14.2155 
  18   2.0000      -0.494056       -13.4440 
  19   2.0000      -0.487059       -13.2535 
  20   2.0000      -0.472881       -12.8677 
  21   2.0000      -0.467810       -12.7298 
  22   2.0000      -0.445708       -12.1283 
  23   2.0000      -0.435295       -11.8450 
  24   2.0000      -0.407042       -11.0762 
  25   2.0000      -0.404062       -10.9951 
  26   2.0000      -0.399991       -10.8843 
  27   2.0000      -0.379636       -10.3304 
  28   2.0000      -0.376807       -10.2534 
  29   2.0000      -0.367452        -9.9989 
  30   2.0000      -0.366942        -9.9850 
  31   2.0000      -0.365024        -9.9328 
  32   2.0000      -0.345879        -9.4118 
  33   0.0000       0.131289         3.5726 
  34   0.0000       0.144048         3.9197 
  35   0.0000       0.155716         4.2372 
  36   0.0000       0.173191         4.7128 
  37   0.0000       0.178995         4.8707 
  38   0.0000       0.185740         5.0542 
  39   0.0000       0.203257         5.5309 
  40   0.0000       0.206486         5.6188 
  41   0.0000       0.208010         5.6602 
  42   0.0000       0.227451         6.1893 
  43   0.0000       0.230434         6.2704 
  44   0.0000       0.232312         6.3215 
  45   0.0000       0.233078         6.3424 
  46   0.0000       0.234838         6.3903 
  47   0.0000       0.242572         6.6007 
  48   0.0000       0.247793         6.7428 
  49   0.0000       0.251535         6.8446 
  50   0.0000       0.254492         6.9251 
  51   0.0000       0.254597         6.9279 
  52   0.0000       0.255042         6.9400 
  53   0.0000       0.283547         7.7157 
  54   0.0000       0.285979         7.7819 
  55   0.0000       0.314877         8.5682 
  56   0.0000       0.331093         9.0095 
  57   0.0000       0.337192         9.1755 
  58   0.0000       0.453782        12.3480 
  59   0.0000       0.491740        13.3809 
  60   0.0000       0.505978        13.7684 
  61   0.0000       0.532305        14.4848 
  62   0.0000       0.538570        14.6552 
  63   0.0000       0.543611        14.7924 
  64   0.0000       0.570920        15.5355 
  65   0.0000       0.571576        15.5534 
  66   0.0000       0.592983        16.1359 
  67   0.0000       0.600187        16.3319 
  68   0.0000       0.615506        16.7488 
  69   0.0000       0.621372        16.9084 
  70   0.0000       0.676977        18.4215 
  71   0.0000       0.689510        18.7625 
  72   0.0000       0.704039        19.1579 
  73   0.0000       0.721444        19.6315 
  74   0.0000       0.722423        19.6581 
  75   0.0000       0.749468        20.3940 
  76   0.0000       0.762556        20.7502 
  77   0.0000       0.817937        22.2572 
  78   0.0000       0.820755        22.3339 
  79   0.0000       0.846273        23.0283 
  80   0.0000       0.910254        24.7693 
  81   0.0000       0.941049        25.6072 
  82   0.0000       0.972760        26.4701 
  83   0.0000       0.984360        26.7858 
  84   0.0000       1.003475        27.3059 
  85   0.0000       1.023674        27.8556 
  86   0.0000       1.035853        28.1870 
  87   0.0000       1.037421        28.2297 
  88   0.0000       1.043918        28.4065 
  89   0.0000       1.061994        28.8983 
  90   0.0000       1.062272        28.9059 
  91   0.0000       1.062901        28.9230 
  92   0.0000       1.064736        28.9729 
  93   0.0000       1.068986        29.0886 
  94   0.0000       1.083107        29.4728 
  95   0.0000       1.084648        29.5148 
  96   0.0000       1.089662        29.6512 
  97   0.0000       1.090564        29.6758 
  98   0.0000       1.093869        29.7657 
  99   0.0000       1.105427        30.0802 
 100   0.0000       1.209591        32.9146 
 101   0.0000       1.286621        35.0107 
 102   0.0000       1.361484        37.0479 
 103   0.0000       1.402126        38.1538 
 104   0.0000       1.429711        38.9044 
 105   0.0000       1.440508        39.1982 
 106   0.0000       1.470639        40.0181 
 107   0.0000       1.507443        41.0196 
 108   0.0000       1.550766        42.1985 
 109   0.0000       1.593639        43.3651 
 110   0.0000       1.625310        44.2269 
 111   0.0000       1.731759        47.1236 
 112   0.0000       1.734585        47.2004 
 113   0.0000       1.822637        49.5965 
 114   0.0000       1.853396        50.4335 
 115   0.0000       1.883340        51.2483 
 116   0.0000       1.922421        52.3117 
 117   0.0000       1.967270        53.5321 
 118   0.0000       1.973652        53.7058 
 119   0.0000       1.983354        53.9698 
 120   0.0000       1.989515        54.1375 
 121   0.0000       2.015064        54.8327 
 122   0.0000       2.033252        55.3276 
 123   0.0000       2.047304        55.7100 
 124   0.0000       2.047676        55.7201 
 125   0.0000       2.097239        57.0688 
 126   0.0000       2.105810        57.3020 
 127   0.0000       2.119281        57.6686 
 128   0.0000       2.197021        59.7840 
 129   0.0000       2.226213        60.5783 
 130   0.0000       2.282873        62.1201 
 131   0.0000       2.327753        63.3414 
 132   0.0000       2.343240        63.7628 
 133   0.0000       2.376911        64.6790 
 134   0.0000       2.394026        65.1448 
 135   0.0000       2.426390        66.0254 
 136   0.0000       2.468502        67.1714 
 137   0.0000       2.477853        67.4258 
 138   0.0000       2.541218        69.1501 
 139   0.0000       2.542785        69.1927 
 140   0.0000       2.547004        69.3075 
 141   0.0000       2.600753        70.7701 
 142   0.0000       2.617928        71.2374 
 143   0.0000       2.642278        71.9000 
 144   0.0000       2.721668        74.0603 
 145   0.0000       2.770396        75.3863 
 146   0.0000       2.888571        78.6020 
 147   0.0000       2.917064        79.3774 
 148   0.0000      13.525483       368.0471 
 149   0.0000      13.652648       371.5074 
 150   0.0000      13.782729       375.0471 
 151   0.0000      13.889200       377.9443 
 152   0.0000      13.963153       379.9567 
 153   0.0000      14.010624       381.2485 
 154   0.0000      14.065370       382.7382 
 155   0.0000      14.135526       384.6472 

                    ********************************
                    * MULLIKEN POPULATION ANALYSIS *
                    ********************************

-----------------------
MULLIKEN ATOMIC CHARGES
-----------------------
   0 C :   -0.638155
   1 C :   -0.409460
   2 C :   -0.394949
   3 C :   -0.399136
   4 C :   -0.399137
   5 C :   -0.394950
   6 C :   -0.409459
   7 C :   -0.638154
   8 H :    0.218120
   9 H :    0.208467
  10 H :    0.208467
  11 H :    0.204158
  12 H :    0.204158
  13 H :    0.199358
  14 H :    0.199358
  15 H :    0.199808
  16 H :    0.199808
  17 H :    0.199807
  18 H :    0.199807
  19 H :    0.199358
  20 H :    0.199358
  21 H :    0.204158
  22 H :    0.204158
  23 H :    0.208467
  24 H :    0.218119
  25 H :    0.208467
Sum of atomic charges:    0.0000000

--------------------------------
MULLIKEN REDUCED ORBITAL CHARGES
--------------------------------
  0 C s       :     3.376023  s :     3.376023
      pz      :     1.122489  p :     3.224958
      px      :     1.018699
      py      :     1.083769
      dz2     :     0.007181  d :     0.037174
      dxz     :     0.001856
      dyz     :     0.012657
      dx2y2   :     0.005280
      dxy     :     0.010200
  1 C s       :     3.319456  s :     3.319456
      pz      :     1.115949  p :     3.045847
      px      :     0.908852
      py      :     1.021046
      dz2     :     0.007152  d :     0.044156
      dxz     :     0.003485
      dyz     :     0.015318
      dx2y2   :     0.008167
      dxy     :     0.010036
  2 C s       :     3.316085  s :     3.316085
      pz      :     1.108242  p :     3.034816
      px      :     0.907757
      py      :     1.018816
      dz2     :     0.007062  d :     0.044049
      dxz     :     0.003470
      dyz     :     0.015455
      dx2y2   :     0.008137
      dxy     :     0.009924
  3 C s       :     3.317002  s :     3.317002
      pz      :     1.109004  p :     3.038116
      px      :     0.909618
      py      :     1.019495
      dz2     :     0.007074  d :     0.044018
      dxz     :     0.003479
      dyz     :     0.015441
      dx2y2   :     0.008137
      dxy     :     0.009887
  4 C s       :     3.317002  s :     3.317002
      pz      :     1.109004  p :     3.038116
      px      :     0.909618
      py      :     1.019495
      dz2     :     0.007074  d :     0.044018
      dxz     :     0.003479
      dyz     :     0.015441
      dx2y2   :     0.008137
      dxy     :     0.009887
  5 C s       :     3.316085  s :     3.316085
      pz      :     1.108243  p :     3.034816
      px      :     0.907758
      py      :     1.018816
      dz2     :     0.007062  d :     0.044049
      dxz     :     0.003470
      dyz     :     0.015455
      dx2y2   :     0.008137
      dxy     :     0.009924
  6 C s       :     3.319455  s :     3.319455
      pz      :     1.115949  p :     3.045847
      px      :     0.908853
      py      :     1.021045
      dz2     :     0.007152  d :     0.044156
      dxz     :     0.003485
      dyz     :     0.015318
      dx2y2   :     0.008167
      dxy     :     0.010036
  7 C s       :     3.376022  s :     3.376022
      pz      :     1.122489  p :     3.224958
      px      :     1.018700
      py      :     1.083769
      dz2     :     0.007181  d :     0.037174
      dxz     :     0.001856
      dyz     :     0.012657
      dx2y2   :     0.005280
      dxy     :     0.010200
  8 H s       :     0.781880  s :     0.781880
  9 H s       :     0.791533  s :     0.791533
 10 H s       :     0.791533  s :     0.791533
 11 H s       :     0.795842  s :     0.795842
 12 H s       :     0.795842  s :     0.795842
 13 H s       :     0.800642  s :     0.800642
 14 H s       :     0.800642  s :     0.800642
 15 H s       :     0.800192  s :     0.800192
 16 H s       :     0.800192  s :     0.800192
 17 H s       :     0.800193  s :     0.800193
 18 H s       :     0.800193  s :     0.800193
 19 H s       :     0.800642  s :     0.800642
 20 H s       :     0.800642  s :     0.800642
 21 H s       :     0.795842  s :     0.795842
 22 H s       :     0.795842  s :     0.795842
 23 H s       :     0.791533  s :     0.791533
 24 H s       :     0.781881  s :     0.781881
 25 H s       :     0.791533  s :     0.791533


                     *******************************
                     * LOEWDIN POPULATION ANALYSIS *
                     *******************************

----------------------
LOEWDIN ATOMIC CHARGES
----------------------
   0 C :   -0.361845
   1 C :   -0.245644
   2 C :   -0.239607
   3 C :   -0.238009
   4 C :   -0.238009
   5 C :   -0.239607
   6 C :   -0.245644
   7 C :   -0.361845
   8 H :    0.125788
   9 H :    0.123262
  10 H :    0.123262
  11 H :    0.119242
  12 H :    0.119242
  13 H :    0.118386
  14 H :    0.118386
  15 H :    0.118768
  16 H :    0.118768
  17 H :    0.118768
  18 H :    0.118768
  19 H :    0.118386
  20 H :    0.118386
  21 H :    0.119242
  22 H :    0.119242
  23 H :    0.123262
  24 H :    0.125788
  25 H :    0.123262

-------------------------------
LOEWDIN REDUCED ORBITAL CHARGES
-------------------------------
  0 C s       :     2.952200  s :     2.952200
      pz      :     1.131975  p :     3.340387
      px      :     1.088939
      py      :     1.119473
      dz2     :     0.012811  d :     0.069258
      dxz     :     0.003982
      dyz     :     0.021635
      dx2y2   :     0.010926
      dxy     :     0.019904
  1 C s       :     2.909409  s :     2.909409
      pz      :     1.109396  p :     3.246339
      px      :     1.047397
      py      :     1.089545
      dz2     :     0.013840  d :     0.089896
      dxz     :     0.007277
      dyz     :     0.027088
      dx2y2   :     0.017709
      dxy     :     0.023981
  2 C s       :     2.909707  s :     2.909707
      pz      :     1.107346  p :     3.240120
      px      :     1.043014
      py      :     1.089760
      dz2     :     0.013768  d :     0.089781
      dxz     :     0.007304
      dyz     :     0.027350
      dx2y2   :     0.017795
      dxy     :     0.023564
  3 C s       :     2.907612  s :     2.907612
      pz      :     1.107498  p :     3.240649
      px      :     1.042722
      py      :     1.090429
      dz2     :     0.013774  d :     0.089747
      dxz     :     0.007296
      dyz     :     0.027314
      dx2y2   :     0.017841
      dxy     :     0.023522
  4 C s       :     2.907612  s :     2.907612
      pz      :     1.107498  p :     3.240649
      px      :     1.042722
      py      :     1.090429
      dz2     :     0.013774  d :     0.089747
      dxz     :     0.007296
      dyz     :     0.027314
      dx2y2   :     0.017841
      dxy     :     0.023522
  5 C s       :     2.909707  s :     2.909707
      pz      :     1.107346  p :     3.240120
      px      :     1.043014
      py      :     1.089760
      dz2     :     0.013768  d :     0.089781
      dxz     :     0.007304
      dyz     :     0.027350
      dx2y2   :     0.017795
      dxy     :     0.023564
  6 C s       :     2.909409  s :     2.909409
      pz      :     1.109396  p :     3.246339
      px      :     1.047397
      py      :     1.089545
      dz2     :     0.013840  d :     0.089896
      dxz     :     0.007277
      dyz     :     0.027088
      dx2y2   :     0.017709
      dxy     :     0.023981
  7 C s       :     2.952200  s :     2.952200
      pz      :     1.131975  p :     3.340387
      px      :     1.088939
      py      :     1.119473
      dz2     :     0.012811  d :     0.069258
      dxz     :     0.003982
      dyz     :     0.021635
      dx2y2   :     0.010926
      dxy     :     0.019904
  8 H s       :     0.874212  s :     0.874212
  9 H s       :     0.876738  s :     0.876738
 10 H s       :     0.876738  s :     0.876738
 11 H s       :     0.880758  s :     0.880758
 12 H s       :     0.880758  s :     0.880758
 13 H s       :     0.881614  s :     0.881614
 14 H s       :     0.881614  s :     0.881614
 15 H s       :     0.881232  s :     0.881232
 16 H s       :     0.881232  s :     0.881232
 17 H s       :     0.881232  s :     0.881232
 18 H s       :     0.881232  s :     0.881232
 19 H s       :     0.881614  s :     0.881614
 20 H s       :     0.881614  s :     0.881614
 21 H s       :     0.880758  s :     0.880758
 22 H s       :     0.880758  s :     0.880758
 23 H s       :     0.876738  s :     0.876738
 24 H s       :     0.874212  s :     0.874212
 25 H s       :     0.876738  s :     0.876738


                      *****************************
                      * MAYER POPULATION ANALYSIS *
                      *****************************

  NA   - Mulliken gross atomic population
  ZA   - Total nuclear charge
  QA   - Mulliken gross atomic charge
  VA   - Mayer's total valence
  BVA  - Mayer's bonded valence
  FA   - Mayer's free valence

  ATOM       NA         ZA         QA         VA         BVA        FA
  0 C      6.6382     6.0000    -0.6382     3.7459     3.7459     0.0000
  1 C      6.4095     6.0000    -0.4095     3.7605     3.7605    -0.0000
  2 C      6.3949     6.0000    -0.3949     3.7397     3.7397    -0.0000
  3 C      6.3991     6.0000    -0.3991     3.7509     3.7509     0.0000
  4 C      6.3991     6.0000    -0.3991     3.7509     3.7509     0.0000
  5 C      6.3949     6.0000    -0.3949     3.7397     3.7397     0.0000
  6 C      6.4095     6.0000    -0.4095     3.7605     3.7605    -0.0000
  7 C      6.6382     6.0000    -0.6382     3.7459     3.7459     0.0000
  8 H      0.7819     1.0000     0.2181     0.9137     0.9137     0.0000
  9 H      0.7915     1.0000     0.2085     0.9149     0.9149     0.0000
 10 H      0.7915     1.0000     0.2085     0.9149     0.9149     0.0000
 11 H      0.7958     1.0000     0.2042     0.9091     0.9091    -0.0000
 12 H      0.7958     1.0000     0.2042     0.9091     0.9091    -0.0000
 13 H      0.8006     1.0000     0.1994     0.9120     0.9120    -0.0000
 14 H      0.8006     1.0000     0.1994     0.9120     0.9120     0.0000
 15 H      0.8002     1.0000     0.1998     0.9120     0.9120    -0.0000
 16 H      0.8002     1.0000     0.1998     0.9120     0.9120     0.0000
 17 H      0.8002     1.0000     0.1998     0.9120     0.9120     0.0000
 18 H      0.8002     1.0000     0.1998     0.9120     0.9120     0.0000
 19 H      0.8006     1.0000     0.1994     0.9120     0.9120     0.0000
 20 H      0.8006     1.0000     0.1994     0.9120     0.9120     0.0000
 21 H      0.7958     1.0000     0.2042     0.9091     0.9091    -0.0000
 22 H      0.7958     1.0000     0.2042     0.9091     0.9091    -0.0000
 23 H      0.7915     1.0000     0.2085     0.9149     0.9149     0.0000
 24 H      0.7819     1.0000     0.2181     0.9137     0.9137     0.0000
 25 H      0.7915     1.0000     0.2085     0.9149     0.9149     0.0000

  Mayer bond orders larger than 0.100000
B(  0-C ,  1-C ) :   0.9982 B(  0-C ,  8-H ) :   0.9323 B(  0-C ,  9-H ) :   0.9297 
B(  0-C , 10-H ) :   0.9297 B(  1-C ,  2-C ) :   0.9908 B(  1-C , 11-H ) :   0.9208 
B(  1-C , 12-H ) :   0.9208 B(  2-C ,  3-C ) :   0.9960 B(  2-C , 13-H ) :   0.9187 
B(  2-C , 14-H ) :   0.9187 B(  3-C ,  4-C ) :   0.9947 B(  3-C , 15-H ) :   0.9187 
B(  3-C , 16-H ) :   0.9187 B(  4-C ,  5-C ) :   0.9960 B(  4-C , 17-H ) :   0.9187 
B(  4-C , 18-H ) :   0.9187 B(  5-C ,  6-C ) :   0.9908 B(  5-C , 19-H ) :   0.9187 
B(  5-C , 20-H ) :   0.9187 B(  6-C ,  7-C ) :   0.9982 B(  6-C , 21-H ) :   0.9208 
B(  6-C , 22-H ) :   0.9208 B(  7-C , 23-H ) :   0.9297 B(  7-C , 24-H ) :   0.9323 
B(  7-C , 25-H ) :   0.9297 

-------
TIMINGS
-------

Total SCF time: 0 days 0 hours 1 min 41 sec 

Total time                  ....     101.067 sec
Sum of individual times     ....      94.003 sec  ( 93.0%)

Fock matrix formation       ....      82.682 sec  ( 81.8%)
  Split-RI-J                ....       7.302 sec  (  8.8% of F)
  Chain of spheres X        ....      43.593 sec  ( 52.7% of F)
  XC integration            ....      20.084 sec  ( 24.3% of F)
    Basis function eval.    ....       4.792 sec  ( 23.9% of XC)
    Density eval.           ....       2.578 sec  ( 12.8% of XC)
    XC-Functional eval.     ....       2.147 sec  ( 10.7% of XC)
    XC-Potential eval.      ....       1.582 sec  (  7.9% of XC)
Diagonalization             ....       0.403 sec  (  0.4%)
Density matrix formation    ....       0.159 sec  (  0.2%)
Population analysis         ....       0.239 sec  (  0.2%)
Initial guess               ....       0.033 sec  (  0.0%)
Orbital Transformation      ....       0.000 sec  (  0.0%)
Orbital Orthonormalization  ....       0.000 sec  (  0.0%)
DIIS solution               ....       1.723 sec  (  1.7%)
SOSCF solution              ....       0.590 sec  (  0.6%)
Grid generation             ....       8.174 sec  (  8.1%)

Maximum memory used throughout the entire SCF-calculation: 60.6 MB


-------------------------------------------------------------------------------
                          DFT DISPERSION CORRECTION                            
                                                                               
                              DFTD3 V3.1  Rev 1                                
                          USING Becke-Johnson damping                          
-------------------------------------------------------------------------------
The PBEh-3c composite method is recognized
Using three-body term ABC
Active option DFTDOPT                   ...         4   

molecular C6(AA) [au] = 4320.350257 


            DFT-D V3
 parameters
 s6 scaling factor         :     1.0000 
 a1 scaling factor         :     0.4860 
 s8 scaling factor         :     0.0000 
 a2 scaling factor         :     4.5000 
 Damping factor alpha9(ATM):    16.0000 
 ad hoc parameters k1-k3   :    16.0000     1.3333    -4.0000 

 Edisp/kcal,au: -7.499766474220  -0.011951637360 
 E6   /kcal   :  -7.501979201 
 E8   /kcal   :  -0.000000000 
 E6(ABC)      :   0.002212726 
 % E8         :   0.000000000 
 % E6(ABC)    :  -0.029503937 

-------------------------   ----------------
Dispersion correction           -0.011951637
-------------------------   ----------------

------------------   -----------------
gCP correction             0.037847410
------------------   -----------------

-------------------------   --------------------
FINAL SINGLE POINT ENERGY      -315.016833946647
-------------------------   --------------------


                            ***************************************
                            *     ORCA property calculations      *
                            ***************************************

                                    ---------------------
                                    Active property flags
                                    ---------------------
   (+) Dipole Moment


------------------------------------------------------------------------------
                       ORCA ELECTRIC PROPERTIES CALCULATION
------------------------------------------------------------------------------

Dipole Moment Calculation                       ... on
Quadrupole Moment Calculation                   ... off
Polarizability Calculation                      ... off
GBWName                                         ... pbeh-3c.gbw
Electron density                                ... pbeh-3c.scfp
The origin for moment calculation is the CENTER OF MASS  = (-0.000000,  0.000000  0.000000)

-------------
DIPOLE MOMENT
-------------
                                X             Y             Z
Electronic contribution:      0.00000      -0.00000      -0.00000
Nuclear contribution   :      0.00000       0.00000       0.00000
                        -----------------------------------------
Total Dipole Moment    :      0.00000      -0.00000      -0.00000
                        -----------------------------------------
Magnitude (a.u.)       :      0.00000
Magnitude (Debye)      :      0.00000



--------------------
Rotational spectrum 
--------------------
 
Rotational constants in cm-1:     0.359502     0.016439     0.016094 
Rotational constants in MHz : 10777.602381   492.829013   482.496241 

 Dipole components along the rotational axes: 
x,y,z [a.u.] :    -0.000001    -0.000000    -0.000000 
x,y,z [Debye]:    -0.000002    -0.000000    -0.000000 

 

Timings for individual modules:

Sum of individual times         ...      103.311 sec (=   1.722 min)
GTO integral calculation        ...        1.536 sec (=   0.026 min)   1.5 %
SCF iterations                  ...      101.775 sec (=   1.696 min)  98.5 %
                             ****ORCA TERMINATED NORMALLY****
TOTAL RUN TIME: 0 days 0 hours 1 minutes 46 seconds 477 msec
