
                                 *****************
                                 * O   R   C   A *
                                 *****************

                                            #,                                       
                                            ###                                      
                                            ####                                     
                                            #####                                    
                                            ######                                   
                                           ########,                                 
                                     ,,################,,,,,                         
                               ,,#################################,,                 
                          ,,##########################################,,             
                       ,#########################################, ''#####,          
                    ,#############################################,,   '####,        
                  ,##################################################,,,,####,       
                ,###########''''           ''''###############################       
              ,#####''   ,,,,##########,,,,          '''####'''          '####       
            ,##' ,,,,###########################,,,                        '##       
           ' ,,###''''                  '''############,,,                           
         ,,##''                                '''############,,,,        ,,,,,,###''
      ,#''                                            '''#######################'''  
     '                                                          ''''####''''         
             ,#######,   #######,   ,#######,      ##                                
            ,#'     '#,  ##    ##  ,#'     '#,    #''#        ######   ,####,        
            ##       ##  ##   ,#'  ##            #'  '#       #        #'  '#        
            ##       ##  #######   ##           ,######,      #####,   #    #        
            '#,     ,#'  ##    ##  '#,     ,#' ,#      #,         ##   #,  ,#        
             '#######'   ##     ##  '#######'  #'      '#     #####' # '####'        



                  #######################################################
                  #                        -***-                        #
                  #          Department of theory and spectroscopy      #
                  #    Directorship and core code : Frank Neese         #
                  #        Max Planck Institute fuer Kohlenforschung    #
                  #                Kaiser Wilhelm Platz 1               #
                  #                 D-45470 Muelheim/Ruhr               #
                  #                      Germany                        #
                  #                                                     #
                  #                  All rights reserved                #
                  #                        -***-                        #
                  #######################################################


                         Program Version 5.0.3 -  RELEASE  -


 With contributions from (in alphabetic order):
   Daniel Aravena         : Magnetic Suceptibility
   Michael Atanasov       : Ab Initio Ligand Field Theory (pilot matlab implementation)
   Alexander A. Auer      : GIAO ZORA, VPT2 properties, NMR spectrum
   Ute Becker             : Parallelization
   Giovanni Bistoni       : ED, misc. LED, open-shell LED, HFLD
   Martin Brehm           : Molecular dynamics
   Dmytro Bykov           : SCF Hessian
   Vijay G. Chilkuri      : MRCI spin determinant printing, contributions to CSF-ICE
   Dipayan Datta          : RHF DLPNO-CCSD density
   Achintya Kumar Dutta   : EOM-CC, STEOM-CC
   Dmitry Ganyushin       : Spin-Orbit,Spin-Spin,Magnetic field MRCI
   Miquel Garcia          : C-PCM and meta-GGA Hessian, CC/C-PCM, Gaussian charge scheme
   Yang Guo               : DLPNO-NEVPT2, F12-NEVPT2, CIM, IAO-localization
   Andreas Hansen         : Spin unrestricted coupled pair/coupled cluster methods
   Benjamin Helmich-Paris : MC-RPA, TRAH-SCF, COSX integrals
   Lee Huntington         : MR-EOM, pCC
   Robert Izsak           : Overlap fitted RIJCOSX, COSX-SCS-MP3, EOM
   Marcus Kettner         : VPT2
   Christian Kollmar      : KDIIS, OOCD, Brueckner-CCSD(T), CCSD density, CASPT2, CASPT2-K
   Simone Kossmann        : Meta GGA functionals, TD-DFT gradient, OOMP2, MP2 Hessian
   Martin Krupicka        : Initial AUTO-CI
   Lucas Lang             : DCDCAS
   Marvin Lechner         : AUTO-CI (C++ implementation), FIC-MRCC
   Dagmar Lenk            : GEPOL surface, SMD
   Dimitrios Liakos       : Extrapolation schemes; Compound Job, initial MDCI parallelization
   Dimitrios Manganas     : Further ROCIS development; embedding schemes
   Dimitrios Pantazis     : SARC Basis sets
   Anastasios Papadopoulos: AUTO-CI, single reference methods and gradients
   Taras Petrenko         : DFT Hessian,TD-DFT gradient, ASA, ECA, R-Raman, ABS, FL, XAS/XES, NRVS
   Peter Pinski           : DLPNO-MP2, DLPNO-MP2 Gradient
   Christoph Reimann      : Effective Core Potentials
   Marius Retegan         : Local ZFS, SOC
   Christoph Riplinger    : Optimizer, TS searches, QM/MM, DLPNO-CCSD(T), (RO)-DLPNO pert. Triples
   Tobias Risthaus        : Range-separated hybrids, TD-DFT gradient, RPA, STAB
   Michael Roemelt        : Original ROCIS implementation
   Masaaki Saitow         : Open-shell DLPNO-CCSD energy and density
   Barbara Sandhoefer     : DKH picture change effects
   Avijit Sen             : IP-ROCIS
   Kantharuban Sivalingam : CASSCF convergence, NEVPT2, FIC-MRCI
   Bernardo de Souza      : ESD, SOC TD-DFT
   Georgi Stoychev        : AutoAux, RI-MP2 NMR, DLPNO-MP2 response
   Willem Van den Heuvel  : Paramagnetic NMR
   Boris Wezisla          : Elementary symmetry handling
   Frank Wennmohs         : Technical directorship


 We gratefully acknowledge several colleagues who have allowed us to
 interface, adapt or use parts of their codes:
   Stefan Grimme, W. Hujo, H. Kruse, P. Pracht,  : VdW corrections, initial TS optimization,
                  C. Bannwarth, S. Ehlert          DFT functionals, gCP, sTDA/sTD-DF
   Ed Valeev, F. Pavosevic, A. Kumar             : LibInt (2-el integral package), F12 methods
   Garnet Chan, S. Sharma, J. Yang, R. Olivares  : DMRG
   Ulf Ekstrom                                   : XCFun DFT Library
   Mihaly Kallay                                 : mrcc  (arbitrary order and MRCC methods)
   Jiri Pittner, Ondrej Demel                    : Mk-CCSD
   Frank Weinhold                                : gennbo (NPA and NBO analysis)
   Christopher J. Cramer and Donald G. Truhlar   : smd solvation model
   Lars Goerigk                                  : TD-DFT with DH, B97 family of functionals
   V. Asgeirsson, H. Jonsson                     : NEB implementation
   FAccTs GmbH                                   : IRC, NEB, NEB-TS, DLPNO-Multilevel, CI-OPT
                                                   MM, QMMM, 2- and 3-layer-ONIOM, Crystal-QMMM,
                                                   LR-CPCM, SF, NACMEs, symmetry and pop. for TD-DFT,
                                                   nearIR, NL-DFT gradient (VV10), updates on ESD,
                                                   ML-optimized integration grids
   S Lehtola, MJT Oliveira, MAL Marques          : LibXC Library
   Liviu Ungur et al                             : ANISO software


 Your calculation uses the libint2 library for the computation of 2-el integrals
 For citations please refer to: http://libint.valeyev.net

 Your ORCA version has been built with support for libXC version: 5.1.0
 For citations please refer to: https://tddft.org/programs/libxc/

 This ORCA versions uses:
   CBLAS   interface :  Fast vector & matrix operations
   LAPACKE interface :  Fast linear algebra routines
   SCALAPACK package :  Parallel linear algebra routines
   Shared memory     :  Shared parallel matrices
   BLAS/LAPACK       :  OpenBLAS 0.3.15  USE64BITINT DYNAMIC_ARCH NO_AFFINITY Haswell SINGLE_THREADED
        Core in use  :  Haswell
   Copyright (c) 2011-2014, The OpenBLAS Project




***************************************
The coordinates will be read from file: ethylthiourea_0.xyz
***************************************


Your calculation utilizes the geometrical counterpoise correction gCP
Please cite in your paper:
H.Kruse, S. Grimme J.Chem.Phys., 136, (2012), 154101 
   

Your calculation utilizes the atom-pairwise dispersion correction
with the Becke-Johnson damping scheme (D3BJ)
Cite in your paper:
S.Grimme, S.Ehrlich, L.Goerigk, J Comput Chem, (2011), 32, 1456–1465 
S.Grimme, J.Antony, S.Ehrlich and H.Krieg, J.Chem.Phys., 132, (2010), 154104 
   

Your calculation employs the composite approach PBEh-3c.
Please cite in your paper:
S. Grimme, J. G. Brandenburg, C. Bannwarth, A. Hansen J.Chem.Phys., 143, (2015), 054107 
   

================================================================================

----- Orbital basis set information -----
Your calculation utilizes the basis: def2-mSVP

----- AuxJ basis set information -----
Your calculation utilizes the auxiliary basis: def2/J
   F. Weigend, Phys. Chem. Chem. Phys. 8, 1057 (2006).

================================================================================
                                        WARNINGS
                       Please study these warnings very carefully!
================================================================================


INFO   : the flag for use of the SHARK integral package has been found!

================================================================================
                                       INPUT FILE
================================================================================
NAME = pbeh-3c.inp
|  1> ! PBEh-3c def2/J TightSCF DefGrid3
|  2> 
|  3> %maxcore 60000
|  4> 
|  5> %pal
|  6> nprocs 4
|  7> end
|  8> 
|  9> *xyzfile 0 1 ethylthiourea_0.xyz
| 10> 
| 11>                          ****END OF INPUT****
================================================================================

                       ****************************
                       * Single Point Calculation *
                       ****************************

---------------------------------
CARTESIAN COORDINATES (ANGSTROEM)
---------------------------------
  C      0.625278    2.898096   -0.039360
  C     -0.342554    1.737454   -0.031501
  N      0.361388    0.479984    0.014040
  C     -0.225427   -0.728129    0.095151
  N     -1.565627   -0.738290   -0.072571
  S      0.642930   -2.119558    0.353960
  H     -2.115873    0.097652   -0.038753
  H     -2.022160   -1.616542    0.070769
  H      1.343884    0.477448    0.215118
  H     -0.964290    1.772505   -0.927487
  H     -1.009872    1.826844    0.831092
  H      1.293517    2.842258   -0.894537
  H      0.079414    3.835162   -0.092176
  H      1.229059    2.908229    0.865230

----------------------------
CARTESIAN COORDINATES (A.U.)
----------------------------
  NO LB      ZA    FRAG     MASS         X           Y           Z
   0 C     6.0000    0    12.011    1.181604    5.476608   -0.074381
   1 C     6.0000    0    12.011   -0.647333    3.283312   -0.059528
   2 N     7.0000    0    14.007    0.682925    0.907039    0.026531
   3 C     6.0000    0    12.011   -0.425994   -1.375964    0.179809
   4 N     7.0000    0    14.007   -2.958607   -1.395166   -0.137139
   5 S    16.0000    0    32.060    1.214962   -4.005385    0.668888
   6 H     1.0000    0     1.008   -3.998421    0.184535   -0.073233
   7 H     1.0000    0     1.008   -3.821329   -3.054821    0.133734
   8 H     1.0000    0     1.008    2.539573    0.902246    0.406513
   9 H     1.0000    0     1.008   -1.822243    3.349548   -1.752697
  10 H     1.0000    0     1.008   -1.908381    3.452235    1.570536
  11 H     1.0000    0     1.008    2.444393    5.371088   -1.690430
  12 H     1.0000    0     1.008    0.150071    7.247406   -0.174188
  13 H     1.0000    0     1.008    2.322586    5.495757    1.635048

--------------------------------
INTERNAL COORDINATES (ANGSTROEM)
--------------------------------
 C      0   0   0     0.000000000000     0.00000000     0.00000000
 C      1   0   0     1.511241742188     0.00000000     0.00000000
 N      2   1   0     1.441817609176   110.93444979     0.00000000
 C      3   2   1     1.345536228406   124.89286904   176.67500376
 N      4   3   2     1.350693057255   115.59462079     9.80832570
 S      4   3   2     1.660452294093   122.25700048   188.62896817
 H      5   4   3     1.001355576375   122.32754607   345.82427924
 H      5   4   3     1.000147676012   116.21427201   185.54856169
 H      3   2   1     1.002864351991   119.13409454    11.86879644
 H      2   1   3     1.091135008414   109.63182957   239.06709550
 H      2   1   3     1.094243772811   109.38517977   121.67899689
 H      1   2   3     1.086732659938   111.00381030    59.06414450
 H      1   2   3     1.085748103091   109.94473774   178.96591856
 H      1   2   3     1.087629738674   110.99891314   298.58634192

---------------------------
INTERNAL COORDINATES (A.U.)
---------------------------
 C      0   0   0     0.000000000000     0.00000000     0.00000000
 C      1   0   0     2.855833014886     0.00000000     0.00000000
 N      2   1   0     2.724640416408   110.93444979     0.00000000
 C      3   2   1     2.542694974956   124.89286904   176.67500376
 N      4   3   2     2.552439969201   115.59462079     9.80832570
 S      4   3   2     3.137800094276   122.25700048   188.62896817
 H      5   4   3     1.892287802023   122.32754607   345.82427924
 H      5   4   3     1.890005201140   116.21427201   185.54856169
 H      3   2   1     1.895138974736   119.13409454    11.86879644
 H      2   1   3     2.061946341037   109.63182957   239.06709550
 H      2   1   3     2.067821054361   109.38517977   121.67899689
 H      1   2   3     2.053627108070   111.00381030    59.06414450
 H      1   2   3     2.051766565267   109.94473774   178.96591856
 H      1   2   3     2.055322341201   110.99891314   298.58634192

---------------------
BASIS SET INFORMATION
---------------------
There are 4 groups of distinct atoms

 Group   1 Type C   : 8s4p1d contracted to 4s2p1d pattern {5111/31/1}
 Group   2 Type N   : 8s4p1d contracted to 4s2p1d pattern {5111/31/1}
 Group   3 Type S   : 10s7p1d contracted to 4s3p1d pattern {5311/511/1}
 Group   4 Type H   : 4s contracted to 2s pattern {31}

Atom   0C    basis set group =>   1
Atom   1C    basis set group =>   1
Atom   2N    basis set group =>   2
Atom   3C    basis set group =>   1
Atom   4N    basis set group =>   2
Atom   5S    basis set group =>   3
Atom   6H    basis set group =>   4
Atom   7H    basis set group =>   4
Atom   8H    basis set group =>   4
Atom   9H    basis set group =>   4
Atom  10H    basis set group =>   4
Atom  11H    basis set group =>   4
Atom  12H    basis set group =>   4
Atom  13H    basis set group =>   4
---------------------------------
AUXILIARY/J BASIS SET INFORMATION
---------------------------------
There are 4 groups of distinct atoms

 Group   1 Type C   : 12s5p4d2f1g contracted to 6s4p3d1f1g pattern {711111/2111/211/2/1}
 Group   2 Type N   : 12s5p4d2f1g contracted to 6s4p3d1f1g pattern {711111/2111/211/2/1}
 Group   3 Type S   : 14s5p5d2f1g contracted to 8s4p3d1f1g pattern {71111111/2111/311/2/1}
 Group   4 Type H   : 5s2p1d contracted to 3s1p1d pattern {311/2/1}

Atom   0C    basis set group =>   1
Atom   1C    basis set group =>   1
Atom   2N    basis set group =>   2
Atom   3C    basis set group =>   1
Atom   4N    basis set group =>   2
Atom   5S    basis set group =>   3
Atom   6H    basis set group =>   4
Atom   7H    basis set group =>   4
Atom   8H    basis set group =>   4
Atom   9H    basis set group =>   4
Atom  10H    basis set group =>   4
Atom  11H    basis set group =>   4
Atom  12H    basis set group =>   4
Atom  13H    basis set group =>   4


           ************************************************************
           *        Program running with 4 parallel MPI-processes     *
           *              working on a common directory               *
           ************************************************************
------------------------------------------------------------------------------
                           ORCA GTO INTEGRAL CALCULATION
                           -- RI-GTO INTEGRALS CHOSEN --
------------------------------------------------------------------------------
------------------------------------------------------------------------------
                   ___                                                        
                  /   \      - P O W E R E D   B Y -                         
                 /     \                                                     
                 |  |  |   _    _      __       _____    __    __             
                 |  |  |  | |  | |    /  \     |  _  \  |  |  /  |          
                  \  \/   | |  | |   /    \    | | | |  |  | /  /          
                 / \  \   | |__| |  /  /\  \   | |_| |  |  |/  /          
                |  |  |   |  __  | /  /__\  \  |    /   |      \           
                |  |  |   | |  | | |   __   |  |    \   |  |\   \          
                \     /   | |  | | |  |  |  |  | |\  \  |  | \   \       
                 \___/    |_|  |_| |__|  |__|  |_| \__\ |__|  \__/        
                                                                              
                      - O R C A' S   B I G   F R I E N D -                    
                                      &                                       
                       - I N T E G R A L  F E E D E R -                       
                                                                              
 v1 FN, 2020, v2 2021                                                         
------------------------------------------------------------------------------


Reading SHARK input file pbeh-3c.SHARKINP.tmp ... ok
----------------------
SHARK INTEGRAL PACKAGE
----------------------

Number of atoms                             ...     14
Number of basis functions                   ...    109
Number of shells                            ...     59
Maximum angular momentum                    ...      2
Integral batch strategy                     ... SHARK/LIBINT Hybrid
RI-J (if used) integral strategy            ... SPLIT-RIJ (Revised 2003 algorithm where possible)
Printlevel                                  ...      1
Contraction scheme used                     ... SEGMENTED contraction
Coulomb Range Separation                    ... NOT USED
Exchange Range Separation                   ... NOT USED
Finite Nucleus Model                        ... NOT USED
Auxiliary Coulomb fitting basis             ... AVAILABLE
   # of basis functions in Aux-J            ...    384
   # of shells in Aux-J                     ...    132
   Maximum angular momentum in Aux-J        ...      4
Auxiliary J/K fitting basis                 ... NOT available
Auxiliary Correlation fitting basis         ... NOT available
Auxiliary 'external' fitting basis          ... NOT available
Integral threshold                          ...     2.500000e-11
Primitive cut-off                           ...     2.500000e-12
Primitive pair pre-selection threshold      ...     2.500000e-12

Calculating pre-screening integrals         ... done (  0.1 sec) Dimension = 59
Organizing shell pair data                  ... done (  0.4 sec)
Shell pair information
Total number of shell pairs                 ...      1770
Shell pairs after pre-screening             ...      1625
Total number of primitive shell pairs       ...      6782
Primitive shell pairs kept                  ...      4477
          la=0 lb=0:    726 shell pairs
          la=1 lb=0:    490 shell pairs
          la=1 lb=1:     90 shell pairs
          la=2 lb=0:    222 shell pairs
          la=2 lb=1:     76 shell pairs
          la=2 lb=2:     21 shell pairs

Calculating one electron integrals          ... done (  0.0 sec)
Calculating RI/J V-Matrix + Cholesky decomp.... done (  0.8 sec)
Calculating Nuclear repulsion               ... done (  0.1 sec) ENN=    293.412252133904 Eh

SHARK setup successfully completed in   2.9 seconds

Maximum memory used throughout the entire GTOINT-calculation: 10.4 MB


           ************************************************************
           *        Program running with 4 parallel MPI-processes     *
           *              working on a common directory               *
           ************************************************************
-------------------------------------------------------------------------------
                                 ORCA SCF
-------------------------------------------------------------------------------

------------
SCF SETTINGS
------------
Hamiltonian:
 Density Functional     Method          .... DFT(GTOs)
 Exchange Functional    Exchange        .... PBE
   PBE kappa parameter   XKappa         ....  1.024500
   PBE mue parameter    XMuePBE         ....  0.123457
 Correlation Functional Correlation     .... PBE
   PBE beta parameter  CBetaPBE         ....  0.030000
 LDA part of GGA corr.  LDAOpt          .... PW91-LDA
 Gradients option       PostSCFGGA      .... off
 Hybrid DFT is turned on
   Fraction HF Exchange ScalHFX         ....  0.420000
   Scaling of DF-GGA-X  ScalDFX         ....  0.580000
   Scaling of DF-GGA-C  ScalDFC         ....  1.000000
   Scaling of DF-LDA-C  ScalLDAC        ....  1.000000
   Perturbative correction              ....  0.000000
   Density functional embedding theory  .... OFF
 RI-approximation to the Coulomb term is turned on
   Number of AuxJ basis functions       .... 384
   RIJ-ON(X) (HFX calculated with O(N)) .... on
   Number of AuxJ basis functions       .... 384
   RIJ-COSX (HFX calculated with COS-X)).... on


General Settings:
 Integral files         IntName         .... pbeh-3c
 Hartree-Fock type      HFTyp           .... RHF
 Total Charge           Charge          ....    0
 Multiplicity           Mult            ....    1
 Number of Electrons    NEL             ....   56
 Basis Dimension        Dim             ....  109
 Nuclear Repulsion      ENuc            ....    293.4122521339 Eh

Convergence Acceleration:
 DIIS                   CNVDIIS         .... on
   Start iteration      DIISMaxIt       ....    12
   Startup error        DIISStart       ....  0.200000
   # of expansion vecs  DIISMaxEq       ....     5
   Bias factor          DIISBfac        ....   1.050
   Max. coefficient     DIISMaxC        ....  10.000
 Trust-Rad. Augm. Hess. CNVTRAH         .... auto
   Auto Start mean grad. ratio tolernc. ....  1.125000
   Auto Start start iteration           ....    20
   Auto Start num. interpolation iter.  ....    10
   Max. Number of Micro iterations      ....    16
   Max. Number of Macro iterations      .... Maxiter - #DIIS iter
   Number of Davidson start vectors     ....     2
   Converg. threshold I  (grad. norm)   ....   1.000e-05
   Converg. threshold II (energy diff.) ....   1.000e-08
   Grad. Scal. Fac. for Micro threshold ....   0.100
   Minimum threshold for Micro iter.    ....   0.010
   NR start threshold (gradient norm)   ....   0.001
   Initial trust radius                 ....   0.400
   Minimum AH scaling param. (alpha)    ....   1.000
   Maximum AH scaling param. (alpha)    .... 1000.000
   Orbital update algorithm             .... Taylor
   White noise on init. David. guess    .... on
   Maximum white noise                  ....   0.010
   Quad. conv. algorithm                .... NR
   COSX micro iterations for RIJONX calc.... off
 SOSCF                  CNVSOSCF        .... on
   Start iteration      SOSCFMaxIt      ....   150
   Startup grad/error   SOSCFStart      ....  0.003300
 Level Shifting         CNVShift        .... on
   Level shift para.    LevelShift      ....    0.2500
   Turn off err/grad.   ShiftErr        ....    0.0010
 Zerner damping         CNVZerner       .... off
 Static damping         CNVDamp         .... on
   Fraction old density DampFac         ....    0.7000
   Max. Damping (<1)    DampMax         ....    0.9800
   Min. Damping (>=0)   DampMin         ....    0.0000
   Turn off err/grad.   DampErr         ....    0.1000
 Fernandez-Rico         CNVRico         .... off

SCF Procedure:
 Maximum # iterations   MaxIter         ....   125
 SCF integral mode      SCFMode         .... Direct
   Integral package                     .... SHARK and LIBINT hybrid scheme
 Reset frequency        DirectResetFreq ....    20
 Integral Threshold     Thresh          ....  2.500e-11 Eh
 Primitive CutOff       TCut            ....  2.500e-12 Eh

Convergence Tolerance:
 Convergence Check Mode ConvCheckMode   .... Total+1el-Energy
 Convergence forced     ConvForced      .... 0
 Energy Change          TolE            ....  1.000e-08 Eh
 1-El. energy change                    ....  1.000e-05 Eh
 Orbital Gradient       TolG            ....  1.000e-05
 Orbital Rotation angle TolX            ....  1.000e-05
 DIIS Error             TolErr          ....  5.000e-07


Diagonalization of the overlap matrix:
Smallest eigenvalue                        ... 5.595e-03
Time for diagonalization                   ...    0.004 sec
Threshold for overlap eigenvalues          ... 1.000e-08
Number of eigenvalues below threshold      ... 0
Time for construction of square roots      ...    0.249 sec
Total time needed                          ...    0.253 sec

--------------------------------
INITIAL GUESS: MINIMAL BASIS EHT
--------------------------------
The minimal basis has 42 functions
EHT matrix was diagonalized
Basis set overlap was calculated now projecting the orbitals
Using GuessMode=FMatrix for the initial guess
C*T matrix was formed
Effective Fockian was calculated
Effective Fockian was diagonalized
Initial density was built
                      ------------------
                      INITIAL GUESS DONE
                      ------------------
-------------------
DFT GRID GENERATION
-------------------

General Integration Accuracy     IntAcc      ... 4.959
Radial Grid Type                 RadialGrid  ... OptM3 with GC (2021)
Angular Grid (max. ang.)         AngularGrid ... 6 (Lebedev-590)
Angular grid pruning method      GridPruning ... 4 (adaptive)
Weight generation scheme         WeightScheme... Becke
Basis function cutoff            BFCut       ... 1.0000e-11
Integration weight cutoff        WCut        ... 1.0000e-14
Angular grids for H and He will be reduced by one unit
Partially contracted basis set               ... off
Rotationally invariant grid construction     ... off

Total number of grid points                  ...   157655
Total number of batches                      ...     2471
Average number of points per batch           ...       63
Average number of grid points per atom       ...    11261
Time for grid setup =    3.790 sec

--------------------
COSX GRID GENERATION
--------------------

GRIDX 1
-------
General Integration Accuracy     IntAcc      ... 4.020
Radial Grid Type                 RadialGrid  ... OptM3 with GC (2021)
Angular Grid (max. ang.)         AngularGrid ... 2 (Lebedev-110)
Angular grid pruning method      GridPruning ... 4 (adaptive)
Weight generation scheme         WeightScheme... Becke
Basis function cutoff            BFCut       ... 1.0000e-11
Integration weight cutoff        WCut        ... 1.0000e-14
Angular grids for H and He will be reduced by one unit
Partially contracted basis set               ... on
Rotationally invariant grid construction     ... off

Total number of grid points                  ...    17138
Total number of batches                      ...      275
Average number of points per batch           ...       62
Average number of grid points per atom       ...     1224
UseSFitting                                  ... on

GRIDX 2
-------
General Integration Accuracy     IntAcc      ... 4.338
Radial Grid Type                 RadialGrid  ... OptM3 with GC (2021)
Angular Grid (max. ang.)         AngularGrid ... 3 (Lebedev-194)
Angular grid pruning method      GridPruning ... 4 (adaptive)
Weight generation scheme         WeightScheme... Becke
Basis function cutoff            BFCut       ... 1.0000e-11
Integration weight cutoff        WCut        ... 1.0000e-14
Angular grids for H and He will be reduced by one unit
Partially contracted basis set               ... on
Rotationally invariant grid construction     ... off

Total number of grid points                  ...    38188
Total number of batches                      ...      604
Average number of points per batch           ...       63
Average number of grid points per atom       ...     2728
UseSFitting                                  ... on

GRIDX 3
-------
General Integration Accuracy     IntAcc      ... 4.871
Radial Grid Type                 RadialGrid  ... OptM3 with GC (2021)
Angular Grid (max. ang.)         AngularGrid ... 4 (Lebedev-302)
Angular grid pruning method      GridPruning ... 4 (adaptive)
Weight generation scheme         WeightScheme... Becke
Basis function cutoff            BFCut       ... 1.0000e-11
Integration weight cutoff        WCut        ... 1.0000e-14
Angular grids for H and He will be reduced by one unit
Partially contracted basis set               ... on
Rotationally invariant grid construction     ... off

Total number of grid points                  ...    73833
Total number of batches                      ...     1161
Average number of points per batch           ...       63
Average number of grid points per atom       ...     5274
UseSFitting                                  ... on

Time for X-Grid setup             =    4.751 sec

--------------
SCF ITERATIONS
--------------
ITER       Energy         Delta-E        Max-DP      RMS-DP      [F,P]     Damp
               ***  Starting incremental Fock matrix formation  ***
  0   -625.0154733010   0.000000000000 0.18619718  0.00598205  0.4090464 0.7000
  1   -625.3055833179  -0.290110016893 0.12011605  0.00394541  0.2900418 0.7000
  2   -625.4857293213  -0.180146003408 0.07533219  0.00253835  0.2046618 0.7000
                               ***Turning on DIIS***
  3   -625.6097490987  -0.124019777408 0.05158812  0.00176821  0.1442892 0.7000
  4   -625.6982087357  -0.088459636956 0.04315162  0.00135747  0.1016267 0.7000
  5   -625.7613438326  -0.063135096993 0.11858283  0.00350657  0.0712345 0.0000
  6   -625.9135028907  -0.152159058029 0.01356694  0.00044828  0.0087819 0.0000
  7   -625.9139915203  -0.000488629661 0.00794701  0.00023193  0.0060270 0.0000
                      *** Initiating the SOSCF procedure ***
                           *** Shutting down DIIS ***
                      *** Re-Reading the Fockian *** 
                      *** Removing any level shift *** 
ITER      Energy       Delta-E        Grad      Rot      Max-DP    RMS-DP
  8   -625.91414692  -0.0001553977  0.002681  0.002681  0.005437  0.000172
               *** Restarting incremental Fock matrix formation ***
  9   -625.91419487  -0.0000479478  0.001168  0.004050  0.004891  0.000115
 10   -625.91420911  -0.0000142420  0.000317  0.001513  0.002657  0.000098
 11   -625.91421004  -0.0000009337  0.000268  0.000398  0.001408  0.000042
 12   -625.91421194  -0.0000018944  0.000017  0.000064  0.000090  0.000003
 13   -625.91421194  -0.0000000024  0.000010  0.000023  0.000028  0.000001
 14   -625.91421194  -0.0000000033  0.000003  0.000006  0.000016  0.000000
                  ***Gradient check signals convergence***
              ***Rediagonalizing the Fockian in SOSCF/NRSCF***

               *****************************************************
               *                     SUCCESS                       *
               *           SCF CONVERGED AFTER  15 CYCLES          *
               *****************************************************

Old exchange energy                            =    -23.817555660 Eh
New exchange energy                            =    -23.817554606 Eh
Exchange energy change after final integration =      0.000001054 Eh
Total energy after final integration           =   -625.914210887 Eh
Final COS-X integration done in                =     2.671 sec

----------------
TOTAL SCF ENERGY
----------------

Total Energy       :         -625.91421089 Eh          -17031.99157 eV

Components:
Nuclear Repulsion  :          293.41225213 Eh            7984.15329 eV
Electronic Energy  :         -919.32646302 Eh          -25016.14486 eV
One Electron Energy:        -1440.46835185 Eh          -39197.13660 eV
Two Electron Energy:          521.14188883 Eh           14180.99174 eV
Max COSX asymmetry :            0.00000053 Eh               0.00001 eV

Virial components:
Potential Energy   :        -1249.66827910 Eh          -34005.20267 eV
Kinetic Energy     :          623.75406821 Eh           16973.21110 eV
Virial Ratio       :            2.00346313


DFT components:
N(Alpha)           :       27.999998566634 electrons
N(Beta)            :       27.999998566634 electrons
N(Total)           :       55.999997133268 electrons
E(X)               :      -31.703848797811 Eh       
E(C)               :       -2.559927294767 Eh       
E(XC)              :      -34.263776092578 Eh       
DFET-embed. en.    :        0.000000000000 Eh       

---------------
SCF CONVERGENCE
---------------

  Last Energy change         ...    1.0829e-09  Tolerance :   1.0000e-08
  Last MAX-Density change    ...    3.9968e-15  Tolerance :   1.0000e-07
  Last RMS-Density change    ...    6.6836e-17  Tolerance :   5.0000e-09
  Last Orbital Gradient      ...    2.0771e-06  Tolerance :   1.0000e-05
  Last Orbital Rotation      ...    3.0540e-06  Tolerance :   1.0000e-05

             **** THE GBW FILE WAS UPDATED (pbeh-3c.gbw) ****
             **** DENSITY pbeh-3c.scfp WAS UPDATED ****
             **** ENERGY FILE WAS UPDATED (pbeh-3c.en.tmp) ****
             **** THE GBW FILE WAS UPDATED (pbeh-3c.gbw) ****
             **** DENSITY pbeh-3c.scfp WAS UPDATED ****
----------------
ORBITAL ENERGIES
----------------

  NO   OCC          E(Eh)            E(eV) 
   0   2.0000     -89.500120     -2435.4221 
   1   2.0000     -14.668566      -399.1520 
   2   2.0000     -14.663276      -399.0080 
   3   2.0000     -10.554620      -287.2058 
   4   2.0000     -10.497326      -285.6468 
   5   2.0000     -10.453200      -284.4460 
   6   2.0000      -8.141147      -221.5319 
   7   2.0000      -6.033131      -164.1698 
   8   2.0000      -6.027197      -164.0084 
   9   2.0000      -6.024614      -163.9381 
  10   2.0000      -1.096199       -29.8291 
  11   2.0000      -1.002977       -27.2924 
  12   2.0000      -0.879264       -23.9260 
  13   2.0000      -0.795384       -21.6435 
  14   2.0000      -0.720745       -19.6125 
  15   2.0000      -0.689224       -18.7547 
  16   2.0000      -0.624014       -16.9803 
  17   2.0000      -0.571153       -15.5419 
  18   2.0000      -0.558107       -15.1869 
  19   2.0000      -0.537933       -14.6379 
  20   2.0000      -0.470947       -12.8151 
  21   2.0000      -0.469220       -12.7681 
  22   2.0000      -0.448602       -12.2071 
  23   2.0000      -0.422521       -11.4974 
  24   2.0000      -0.399502       -10.8710 
  25   2.0000      -0.323180        -8.7942 
  26   2.0000      -0.241441        -6.5699 
  27   2.0000      -0.237683        -6.4677 
  28   0.0000       0.046720         1.2713 
  29   0.0000       0.111837         3.0432 
  30   0.0000       0.127500         3.4694 
  31   0.0000       0.136659         3.7187 
  32   0.0000       0.177567         4.8318 
  33   0.0000       0.186632         5.0785 
  34   0.0000       0.193218         5.2577 
  35   0.0000       0.198948         5.4136 
  36   0.0000       0.209925         5.7123 
  37   0.0000       0.219550         5.9743 
  38   0.0000       0.252748         6.8776 
  39   0.0000       0.258691         7.0393 
  40   0.0000       0.340374         9.2620 
  41   0.0000       0.371691        10.1142 
  42   0.0000       0.429366        11.6837 
  43   0.0000       0.481726        13.1084 
  44   0.0000       0.507408        13.8073 
  45   0.0000       0.510860        13.9012 
  46   0.0000       0.537495        14.6260 
  47   0.0000       0.555685        15.1210 
  48   0.0000       0.607607        16.5338 
  49   0.0000       0.636420        17.3179 
  50   0.0000       0.669534        18.2189 
  51   0.0000       0.686015        18.6674 
  52   0.0000       0.728714        19.8293 
  53   0.0000       0.759376        20.6637 
  54   0.0000       0.779809        21.2197 
  55   0.0000       0.794547        21.6207 
  56   0.0000       0.814196        22.1554 
  57   0.0000       0.825206        22.4550 
  58   0.0000       0.852223        23.1902 
  59   0.0000       0.907199        24.6862 
  60   0.0000       0.923439        25.1281 
  61   0.0000       0.954484        25.9728 
  62   0.0000       0.967286        26.3212 
  63   0.0000       0.978591        26.6288 
  64   0.0000       0.996135        27.1062 
  65   0.0000       1.011621        27.5276 
  66   0.0000       1.015448        27.6317 
  67   0.0000       1.025341        27.9009 
  68   0.0000       1.034401        28.1475 
  69   0.0000       1.062308        28.9069 
  70   0.0000       1.072579        29.1864 
  71   0.0000       1.086036        29.5525 
  72   0.0000       1.197363        32.5819 
  73   0.0000       1.262312        34.3493 
  74   0.0000       1.308656        35.6103 
  75   0.0000       1.330351        36.2007 
  76   0.0000       1.398590        38.0576 
  77   0.0000       1.435486        39.0616 
  78   0.0000       1.502841        40.8944 
  79   0.0000       1.596338        43.4386 
  80   0.0000       1.630701        44.3736 
  81   0.0000       1.650817        44.9210 
  82   0.0000       1.684446        45.8361 
  83   0.0000       1.778142        48.3857 
  84   0.0000       1.907346        51.9015 
  85   0.0000       1.955341        53.2075 
  86   0.0000       1.981690        53.9245 
  87   0.0000       2.056623        55.9636 
  88   0.0000       2.101132        57.1747 
  89   0.0000       2.126881        57.8754 
  90   0.0000       2.190413        59.6042 
  91   0.0000       2.263891        61.6036 
  92   0.0000       2.286604        62.2217 
  93   0.0000       2.340051        63.6760 
  94   0.0000       2.364022        64.3283 
  95   0.0000       2.400030        65.3081 
  96   0.0000       2.431222        66.1569 
  97   0.0000       2.522869        68.6507 
  98   0.0000       2.584188        70.3193 
  99   0.0000       2.658140        72.3317 
 100   0.0000       2.677648        72.8625 
 101   0.0000       2.708252        73.6953 
 102   0.0000       2.897165        78.8359 
 103   0.0000       3.101060        84.3841 
 104   0.0000      13.648760       371.4017 
 105   0.0000      13.754357       374.2751 
 106   0.0000      13.939058       379.3010 
 107   0.0000      19.182960       521.9949 
 108   0.0000      19.317024       525.6429 

                    ********************************
                    * MULLIKEN POPULATION ANALYSIS *
                    ********************************

-----------------------
MULLIKEN ATOMIC CHARGES
-----------------------
   0 C :   -0.678085
   1 C :   -0.285879
   2 N :   -0.577737
   3 C :    0.348983
   4 N :   -0.779034
   5 S :   -0.311994
   6 H :    0.371378
   7 H :    0.386785
   8 H :    0.379912
   9 H :    0.224165
  10 H :    0.215030
  11 H :    0.237760
  12 H :    0.238052
  13 H :    0.230663
Sum of atomic charges:   -0.0000000

--------------------------------
MULLIKEN REDUCED ORBITAL CHARGES
--------------------------------
  0 C s       :     3.389226  s :     3.389226
      pz      :     1.148319  p :     3.252229
      px      :     1.066940
      py      :     1.036970
      dz2     :     0.007419  d :     0.036630
      dxz     :     0.013090
      dyz     :     0.001459
      dx2y2   :     0.004842
      dxy     :     0.009820
  1 C s       :     3.269676  s :     3.269676
      pz      :     1.117307  p :     2.955873
      px      :     1.018597
      py      :     0.819970
      dz2     :     0.008965  d :     0.060329
      dxz     :     0.018234
      dyz     :     0.008278
      dx2y2   :     0.010794
      dxy     :     0.014058
  2 N s       :     3.534598  s :     3.534598
      pz      :     1.677713  p :     4.007294
      px      :     1.245248
      py      :     1.084333
      dz2     :     0.003733  d :     0.035846
      dxz     :     0.003124
      dyz     :     0.005859
      dx2y2   :     0.014247
      dxy     :     0.008884
  3 C s       :     3.041431  s :     3.041431
      pz      :     0.828563  p :     2.509668
      px      :     0.826435
      py      :     0.854670
      dz2     :     0.006376  d :     0.099918
      dxz     :     0.019231
      dyz     :     0.017575
      dx2y2   :     0.033852
      dxy     :     0.022884
  4 N s       :     3.562183  s :     3.562183
      pz      :     1.743694  p :     4.188250
      px      :     1.166542
      py      :     1.278015
      dz2     :     0.004457  d :     0.028600
      dxz     :     0.003956
      dyz     :     0.001002
      dx2y2   :     0.006410
      dxy     :     0.012774
  5 S s       :     5.911554  s :     5.911554
      pz      :     3.588074  p :    10.344615
      px      :     3.587795
      py      :     3.168746
      dz2     :     0.008156  d :     0.055825
      dxz     :     0.004161
      dyz     :     0.010441
      dx2y2   :     0.010232
      dxy     :     0.022836
  6 H s       :     0.628622  s :     0.628622
  7 H s       :     0.613215  s :     0.613215
  8 H s       :     0.620088  s :     0.620088
  9 H s       :     0.775835  s :     0.775835
 10 H s       :     0.784970  s :     0.784970
 11 H s       :     0.762240  s :     0.762240
 12 H s       :     0.761948  s :     0.761948
 13 H s       :     0.769337  s :     0.769337


                     *******************************
                     * LOEWDIN POPULATION ANALYSIS *
                     *******************************

----------------------
LOEWDIN ATOMIC CHARGES
----------------------
   0 C :   -0.365656
   1 C :   -0.161460
   2 N :   -0.236742
   3 C :   -0.047143
   4 N :   -0.366644
   5 S :   -0.251111
   6 H :    0.248999
   7 H :    0.266224
   8 H :    0.267563
   9 H :    0.120536
  10 H :    0.113613
  11 H :    0.137144
  12 H :    0.140675
  13 H :    0.134000

-------------------------------
LOEWDIN REDUCED ORBITAL CHARGES
-------------------------------
  0 C s       :     2.948799  s :     2.948799
      pz      :     1.143342  p :     3.348088
      px      :     1.112855
      py      :     1.091890
      dz2     :     0.013113  d :     0.068769
      dxz     :     0.022788
      dyz     :     0.002997
      dx2y2   :     0.009922
      dxy     :     0.019949
  1 C s       :     2.893867  s :     2.893867
      pz      :     1.112918  p :     3.143702
      px      :     1.076398
      py      :     0.954385
      dz2     :     0.017174  d :     0.123891
      dxz     :     0.034168
      dyz     :     0.017129
      dx2y2   :     0.023216
      dxy     :     0.032204
  2 N s       :     3.100284  s :     3.100284
      pz      :     1.647107  p :     4.050852
      px      :     1.223598
      py      :     1.180148
      dz2     :     0.005953  d :     0.085606
      dxz     :     0.005371
      dyz     :     0.012800
      dx2y2   :     0.036257
      dxy     :     0.025226
  3 C s       :     2.870039  s :     2.870039
      pz      :     0.861482  p :     2.959770
      px      :     1.025001
      py      :     1.073287
      dz2     :     0.014085  d :     0.217334
      dxz     :     0.039634
      dyz     :     0.034716
      dx2y2   :     0.075637
      dxy     :     0.053262
  4 N s       :     3.146448  s :     3.146448
      pz      :     1.717684  p :     4.159340
      px      :     1.209519
      py      :     1.232136
      dz2     :     0.005636  d :     0.060855
      dxz     :     0.008040
      dyz     :     0.001176
      dx2y2   :     0.017454
      dxy     :     0.028549
  5 S s       :     5.682549  s :     5.682549
      pz      :     3.578337  p :    10.492390
      px      :     3.622002
      py      :     3.292051
      dz2     :     0.011886  d :     0.076171
      dxz     :     0.004584
      dyz     :     0.011629
      dx2y2   :     0.013432
      dxy     :     0.034640
  6 H s       :     0.751001  s :     0.751001
  7 H s       :     0.733776  s :     0.733776
  8 H s       :     0.732437  s :     0.732437
  9 H s       :     0.879464  s :     0.879464
 10 H s       :     0.886387  s :     0.886387
 11 H s       :     0.862856  s :     0.862856
 12 H s       :     0.859325  s :     0.859325
 13 H s       :     0.866000  s :     0.866000


                      *****************************
                      * MAYER POPULATION ANALYSIS *
                      *****************************

  NA   - Mulliken gross atomic population
  ZA   - Total nuclear charge
  QA   - Mulliken gross atomic charge
  VA   - Mayer's total valence
  BVA  - Mayer's bonded valence
  FA   - Mayer's free valence

  ATOM       NA         ZA         QA         VA         BVA        FA
  0 C      6.6781     6.0000    -0.6781     3.7406     3.7406    -0.0000
  1 C      6.2859     6.0000    -0.2859     3.7388     3.7388    -0.0000
  2 N      7.5777     7.0000    -0.5777     3.0290     3.0290     0.0000
  3 C      5.6510     6.0000     0.3490     3.8517     3.8517     0.0000
  4 N      7.7790     7.0000    -0.7790     2.9209     2.9209    -0.0000
  5 S     16.3120    16.0000    -0.3120     1.7366     1.7366     0.0000
  6 H      0.6286     1.0000     0.3714     0.8402     0.8402    -0.0000
  7 H      0.6132     1.0000     0.3868     0.8391     0.8391     0.0000
  8 H      0.6201     1.0000     0.3799     0.8396     0.8396     0.0000
  9 H      0.7758     1.0000     0.2242     0.8942     0.8942    -0.0000
 10 H      0.7850     1.0000     0.2150     0.8958     0.8958     0.0000
 11 H      0.7622     1.0000     0.2378     0.9040     0.9040    -0.0000
 12 H      0.7619     1.0000     0.2381     0.9083     0.9083    -0.0000
 13 H      0.7693     1.0000     0.2307     0.9065     0.9065    -0.0000

  Mayer bond orders larger than 0.100000
B(  0-C ,  1-C ) :   1.0024 B(  0-C , 11-H ) :   0.9171 B(  0-C , 12-H ) :   0.9237 
B(  0-C , 13-H ) :   0.9194 B(  1-C ,  2-N ) :   0.9511 B(  1-C ,  9-H ) :   0.8963 
B(  1-C , 10-H ) :   0.8966 B(  2-N ,  3-C ) :   1.1777 B(  2-N ,  8-H ) :   0.8119 
B(  3-C ,  4-N ) :   1.1590 B(  3-C ,  5-S ) :   1.5360 B(  4-N ,  6-H ) :   0.8092 
B(  4-N ,  7-H ) :   0.8188 

-------
TIMINGS
-------

Total SCF time: 0 days 0 hours 1 min 27 sec 

Total time                  ....      87.821 sec
Sum of individual times     ....      80.514 sec  ( 91.7%)

Fock matrix formation       ....      65.527 sec  ( 74.6%)
  Split-RI-J                ....       6.215 sec  (  9.5% of F)
  Chain of spheres X        ....      23.993 sec  ( 36.6% of F)
  XC integration            ....      20.158 sec  ( 30.8% of F)
    Basis function eval.    ....       3.037 sec  ( 15.1% of XC)
    Density eval.           ....       1.901 sec  (  9.4% of XC)
    XC-Functional eval.     ....       1.461 sec  (  7.3% of XC)
    XC-Potential eval.      ....       1.111 sec  (  5.5% of XC)
Diagonalization             ....       1.017 sec  (  1.2%)
Density matrix formation    ....       0.135 sec  (  0.2%)
Population analysis         ....       0.755 sec  (  0.9%)
Initial guess               ....       0.160 sec  (  0.2%)
Orbital Transformation      ....       0.000 sec  (  0.0%)
Orbital Orthonormalization  ....       0.000 sec  (  0.0%)
DIIS solution               ....       3.466 sec  (  3.9%)
SOSCF solution              ....       0.913 sec  (  1.0%)
Grid generation             ....       8.541 sec  (  9.7%)

Maximum memory used throughout the entire SCF-calculation: 52.0 MB


-------------------------------------------------------------------------------
                          DFT DISPERSION CORRECTION                            
                                                                               
                              DFTD3 V3.1  Rev 1                                
                          USING Becke-Johnson damping                          
-------------------------------------------------------------------------------
The PBEh-3c composite method is recognized
Using three-body term ABC
Active option DFTDOPT                   ...         4   

molecular C6(AA) [au] = 2192.418467 


            DFT-D V3
 parameters
 s6 scaling factor         :     1.0000 
 a1 scaling factor         :     0.4860 
 s8 scaling factor         :     0.0000 
 a2 scaling factor         :     4.5000 
 Damping factor alpha9(ATM):    16.0000 
 ad hoc parameters k1-k3   :    16.0000     1.3333    -4.0000 

 Edisp/kcal,au: -4.173131268874  -0.006650307280 
 E6   /kcal   :  -4.179699815 
 E8   /kcal   :  -0.000000000 
 E6(ABC)      :   0.006568546 
 % E8         :   0.000000000 
 % E6(ABC)    :  -0.157400895 

-------------------------   ----------------
Dispersion correction           -0.006650307
-------------------------   ----------------

------------------   -----------------
gCP correction             0.022762635
------------------   -----------------

-------------------------   --------------------
FINAL SINGLE POINT ENERGY      -625.898098559041
-------------------------   --------------------


                            ***************************************
                            *     ORCA property calculations      *
                            ***************************************

                                    ---------------------
                                    Active property flags
                                    ---------------------
   (+) Dipole Moment


------------------------------------------------------------------------------
                       ORCA ELECTRIC PROPERTIES CALCULATION
------------------------------------------------------------------------------

Dipole Moment Calculation                       ... on
Quadrupole Moment Calculation                   ... off
Polarizability Calculation                      ... off
GBWName                                         ... pbeh-3c.gbw
Electron density                                ... pbeh-3c.scfp
The origin for moment calculation is the CENTER OF MASS  = ( 0.040800, -0.224914  0.196814)

-------------
DIPOLE MOMENT
-------------
                                X             Y             Z
Electronic contribution:      1.13450     -10.29204       0.71962
Nuclear contribution   :     -2.21929      12.34389      -0.76294
                        -----------------------------------------
Total Dipole Moment    :     -1.08479       2.05185      -0.04332
                        -----------------------------------------
Magnitude (a.u.)       :      2.32137
Magnitude (Debye)      :      5.90045



--------------------
Rotational spectrum 
--------------------
 
Rotational constants in cm-1:     0.221568     0.049137     0.040867 
Rotational constants in MHz :  6642.449952  1473.079822  1225.167580 

 Dipole components along the rotational axes: 
x,y,z [a.u.] :    -2.053623    -1.054660    -0.243052 
x,y,z [Debye]:    -5.219895    -2.680733    -0.617789 

 

Timings for individual modules:

Sum of individual times         ...       92.794 sec (=   1.547 min)
GTO integral calculation        ...        3.936 sec (=   0.066 min)   4.2 %
SCF iterations                  ...       88.859 sec (=   1.481 min)  95.8 %
                             ****ORCA TERMINATED NORMALLY****
TOTAL RUN TIME: 0 days 0 hours 1 minutes 38 seconds 733 msec
