
                                 *****************
                                 * O   R   C   A *
                                 *****************

                                            #,                                       
                                            ###                                      
                                            ####                                     
                                            #####                                    
                                            ######                                   
                                           ########,                                 
                                     ,,################,,,,,                         
                               ,,#################################,,                 
                          ,,##########################################,,             
                       ,#########################################, ''#####,          
                    ,#############################################,,   '####,        
                  ,##################################################,,,,####,       
                ,###########''''           ''''###############################       
              ,#####''   ,,,,##########,,,,          '''####'''          '####       
            ,##' ,,,,###########################,,,                        '##       
           ' ,,###''''                  '''############,,,                           
         ,,##''                                '''############,,,,        ,,,,,,###''
      ,#''                                            '''#######################'''  
     '                                                          ''''####''''         
             ,#######,   #######,   ,#######,      ##                                
            ,#'     '#,  ##    ##  ,#'     '#,    #''#        ######   ,####,        
            ##       ##  ##   ,#'  ##            #'  '#       #        #'  '#        
            ##       ##  #######   ##           ,######,      #####,   #    #        
            '#,     ,#'  ##    ##  '#,     ,#' ,#      #,         ##   #,  ,#        
             '#######'   ##     ##  '#######'  #'      '#     #####' # '####'        



                  #######################################################
                  #                        -***-                        #
                  #          Department of theory and spectroscopy      #
                  #    Directorship and core code : Frank Neese         #
                  #        Max Planck Institute fuer Kohlenforschung    #
                  #                Kaiser Wilhelm Platz 1               #
                  #                 D-45470 Muelheim/Ruhr               #
                  #                      Germany                        #
                  #                                                     #
                  #                  All rights reserved                #
                  #                        -***-                        #
                  #######################################################


                         Program Version 5.0.3 -  RELEASE  -


 With contributions from (in alphabetic order):
   Daniel Aravena         : Magnetic Suceptibility
   Michael Atanasov       : Ab Initio Ligand Field Theory (pilot matlab implementation)
   Alexander A. Auer      : GIAO ZORA, VPT2 properties, NMR spectrum
   Ute Becker             : Parallelization
   Giovanni Bistoni       : ED, misc. LED, open-shell LED, HFLD
   Martin Brehm           : Molecular dynamics
   Dmytro Bykov           : SCF Hessian
   Vijay G. Chilkuri      : MRCI spin determinant printing, contributions to CSF-ICE
   Dipayan Datta          : RHF DLPNO-CCSD density
   Achintya Kumar Dutta   : EOM-CC, STEOM-CC
   Dmitry Ganyushin       : Spin-Orbit,Spin-Spin,Magnetic field MRCI
   Miquel Garcia          : C-PCM and meta-GGA Hessian, CC/C-PCM, Gaussian charge scheme
   Yang Guo               : DLPNO-NEVPT2, F12-NEVPT2, CIM, IAO-localization
   Andreas Hansen         : Spin unrestricted coupled pair/coupled cluster methods
   Benjamin Helmich-Paris : MC-RPA, TRAH-SCF, COSX integrals
   Lee Huntington         : MR-EOM, pCC
   Robert Izsak           : Overlap fitted RIJCOSX, COSX-SCS-MP3, EOM
   Marcus Kettner         : VPT2
   Christian Kollmar      : KDIIS, OOCD, Brueckner-CCSD(T), CCSD density, CASPT2, CASPT2-K
   Simone Kossmann        : Meta GGA functionals, TD-DFT gradient, OOMP2, MP2 Hessian
   Martin Krupicka        : Initial AUTO-CI
   Lucas Lang             : DCDCAS
   Marvin Lechner         : AUTO-CI (C++ implementation), FIC-MRCC
   Dagmar Lenk            : GEPOL surface, SMD
   Dimitrios Liakos       : Extrapolation schemes; Compound Job, initial MDCI parallelization
   Dimitrios Manganas     : Further ROCIS development; embedding schemes
   Dimitrios Pantazis     : SARC Basis sets
   Anastasios Papadopoulos: AUTO-CI, single reference methods and gradients
   Taras Petrenko         : DFT Hessian,TD-DFT gradient, ASA, ECA, R-Raman, ABS, FL, XAS/XES, NRVS
   Peter Pinski           : DLPNO-MP2, DLPNO-MP2 Gradient
   Christoph Reimann      : Effective Core Potentials
   Marius Retegan         : Local ZFS, SOC
   Christoph Riplinger    : Optimizer, TS searches, QM/MM, DLPNO-CCSD(T), (RO)-DLPNO pert. Triples
   Tobias Risthaus        : Range-separated hybrids, TD-DFT gradient, RPA, STAB
   Michael Roemelt        : Original ROCIS implementation
   Masaaki Saitow         : Open-shell DLPNO-CCSD energy and density
   Barbara Sandhoefer     : DKH picture change effects
   Avijit Sen             : IP-ROCIS
   Kantharuban Sivalingam : CASSCF convergence, NEVPT2, FIC-MRCI
   Bernardo de Souza      : ESD, SOC TD-DFT
   Georgi Stoychev        : AutoAux, RI-MP2 NMR, DLPNO-MP2 response
   Willem Van den Heuvel  : Paramagnetic NMR
   Boris Wezisla          : Elementary symmetry handling
   Frank Wennmohs         : Technical directorship


 We gratefully acknowledge several colleagues who have allowed us to
 interface, adapt or use parts of their codes:
   Stefan Grimme, W. Hujo, H. Kruse, P. Pracht,  : VdW corrections, initial TS optimization,
                  C. Bannwarth, S. Ehlert          DFT functionals, gCP, sTDA/sTD-DF
   Ed Valeev, F. Pavosevic, A. Kumar             : LibInt (2-el integral package), F12 methods
   Garnet Chan, S. Sharma, J. Yang, R. Olivares  : DMRG
   Ulf Ekstrom                                   : XCFun DFT Library
   Mihaly Kallay                                 : mrcc  (arbitrary order and MRCC methods)
   Jiri Pittner, Ondrej Demel                    : Mk-CCSD
   Frank Weinhold                                : gennbo (NPA and NBO analysis)
   Christopher J. Cramer and Donald G. Truhlar   : smd solvation model
   Lars Goerigk                                  : TD-DFT with DH, B97 family of functionals
   V. Asgeirsson, H. Jonsson                     : NEB implementation
   FAccTs GmbH                                   : IRC, NEB, NEB-TS, DLPNO-Multilevel, CI-OPT
                                                   MM, QMMM, 2- and 3-layer-ONIOM, Crystal-QMMM,
                                                   LR-CPCM, SF, NACMEs, symmetry and pop. for TD-DFT,
                                                   nearIR, NL-DFT gradient (VV10), updates on ESD,
                                                   ML-optimized integration grids
   S Lehtola, MJT Oliveira, MAL Marques          : LibXC Library
   Liviu Ungur et al                             : ANISO software


 Your calculation uses the libint2 library for the computation of 2-el integrals
 For citations please refer to: http://libint.valeyev.net

 Your ORCA version has been built with support for libXC version: 5.1.0
 For citations please refer to: https://tddft.org/programs/libxc/

 This ORCA versions uses:
   CBLAS   interface :  Fast vector & matrix operations
   LAPACKE interface :  Fast linear algebra routines
   SCALAPACK package :  Parallel linear algebra routines
   Shared memory     :  Shared parallel matrices
   BLAS/LAPACK       :  OpenBLAS 0.3.15  USE64BITINT DYNAMIC_ARCH NO_AFFINITY Haswell SINGLE_THREADED
        Core in use  :  Haswell
   Copyright (c) 2011-2014, The OpenBLAS Project




***************************************
The coordinates will be read from file: 50.xyz
***************************************


Your calculation utilizes the geometrical counterpoise correction gCP
Please cite in your paper:
H.Kruse, S. Grimme J.Chem.Phys., 136, (2012), 154101 
   

Your calculation utilizes the atom-pairwise dispersion correction
with the Becke-Johnson damping scheme (D3BJ)
Cite in your paper:
S.Grimme, S.Ehrlich, L.Goerigk, J Comput Chem, (2011), 32, 1456–1465 
S.Grimme, J.Antony, S.Ehrlich and H.Krieg, J.Chem.Phys., 132, (2010), 154104 
   

Your calculation employs the composite approach PBEh-3c.
Please cite in your paper:
S. Grimme, J. G. Brandenburg, C. Bannwarth, A. Hansen J.Chem.Phys., 143, (2015), 054107 
   

================================================================================

----- Orbital basis set information -----
Your calculation utilizes the basis: def2-mSVP

----- AuxJ basis set information -----
Your calculation utilizes the auxiliary basis: def2/J
   F. Weigend, Phys. Chem. Chem. Phys. 8, 1057 (2006).

================================================================================
                                        WARNINGS
                       Please study these warnings very carefully!
================================================================================


INFO   : the flag for use of the SHARK integral package has been found!

================================================================================
                                       INPUT FILE
================================================================================
NAME = pbeh-3c.inp
|  1> ! PBEh-3c def2/J TightSCF DefGrid3
|  2> 
|  3> %maxcore 60000
|  4> 
|  5> %pal
|  6> nprocs 4
|  7> end
|  8> 
|  9> *xyzfile 0 1 50.xyz
| 10> 
| 11>                          ****END OF INPUT****
================================================================================

                       ****************************
                       * Single Point Calculation *
                       ****************************

---------------------------------
CARTESIAN COORDINATES (ANGSTROEM)
---------------------------------
  C     -0.702935    1.031572    1.207794
  H     -1.243589    1.025438    2.144190
  C      0.691243    1.035781    1.207858
  H      1.231858    1.033134    2.144278
  C      1.388260    1.037834    0.000000
  H      2.469543    1.036682    0.000000
  C      0.691243    1.035781   -1.207858
  H      1.231858    1.033134   -2.144278
  C     -0.702935    1.031572   -1.207794
  H     -1.243589    1.025438   -2.144190
  C     -1.399979    1.029273    0.000000
  H     -2.481235    1.021295    0.000000
  C      0.011311   -2.488710    0.000000
  H      0.000886   -1.424537    0.000000
  C      0.023667   -3.701186    0.000000
  H      0.034415   -4.762471    0.000000

----------------------------
CARTESIAN COORDINATES (A.U.)
----------------------------
  NO LB      ZA    FRAG     MASS         X           Y           Z
   0 C     6.0000    0    12.011   -1.328354    1.949389    2.282401
   1 H     1.0000    0     1.008   -2.350043    1.937797    4.051932
   2 C     6.0000    0    12.011    1.306260    1.957342    2.282521
   3 H     1.0000    0     1.008    2.327875    1.952341    4.052098
   4 C     6.0000    0    12.011    2.623431    1.961222    0.000000
   5 H     1.0000    0     1.008    4.666760    1.959046    0.000000
   6 C     6.0000    0    12.011    1.306260    1.957342   -2.282521
   7 H     1.0000    0     1.008    2.327875    1.952341   -4.052098
   8 C     6.0000    0    12.011   -1.328354    1.949389   -2.282401
   9 H     1.0000    0     1.008   -2.350043    1.937797   -4.051932
  10 C     6.0000    0    12.011   -2.645577    1.945044    0.000000
  11 H     1.0000    0     1.008   -4.688855    1.929968    0.000000
  12 C     6.0000    0    12.011    0.021374   -4.702979    0.000000
  13 H     1.0000    0     1.008    0.001675   -2.691984    0.000000
  14 C     6.0000    0    12.011    0.044723   -6.994227    0.000000
  15 H     1.0000    0     1.008    0.065034   -8.999766    0.000000

--------------------------------
INTERNAL COORDINATES (ANGSTROEM)
--------------------------------
 C      0   0   0     0.000000000000     0.00000000     0.00000000
 H      1   0   0     1.081286767995     0.00000000     0.00000000
 C      1   2   0     1.394183953082   119.99904458     0.00000000
 H      3   1   2     1.081274511012   120.00065943     0.00000000
 C      3   1   2     1.394546077771   119.98539360   179.72211785
 H      5   3   1     1.081283413138   119.98774562   180.27012783
 C      5   3   1     1.394546077771   120.02397696     0.00000000
 H      7   5   3     1.081274511012   120.01341933   180.25939923
 C      7   5   3     1.394183953082   119.98539360     0.00000000
 H      9   7   5     1.081286767995   119.99904458   180.27788215
 C      1   2   3     1.394504835295   120.00741475   179.71523765
 H     11   1   2     1.081285333739   119.99003614     0.00000000
 C      5   3   1     3.785828482239    79.44609788   288.84070392
 H     13   5   3     1.064223757311    21.88955262    61.76739972
 C     13   5   3     1.212539054573   158.08783620   241.76739972
 H     15  13   5     1.061339824965   179.99638953   180.00000000

---------------------------
INTERNAL COORDINATES (A.U.)
---------------------------
 C      0   0   0     0.000000000000     0.00000000     0.00000000
 H      1   0   0     2.043335863744     0.00000000     0.00000000
 C      1   2   0     2.634625851632   119.99904458     0.00000000
 H      3   1   2     2.043312701403   120.00065943     0.00000000
 C      3   1   2     2.635310168121   119.98539360   179.72211785
 H      5   3   1     2.043329523983   119.98774562   180.27012783
 C      5   3   1     2.635310168121   120.02397696     0.00000000
 H      7   5   3     2.043312701403   120.01341933   180.25939923
 C      7   5   3     2.634625851632   119.98539360     0.00000000
 H      9   7   5     2.043335863744   119.99904458   180.27788215
 C      1   2   3     2.635232231137   120.00741475   179.71523765
 H     11   1   2     2.043333153393   119.99003614     0.00000000
 C      5   3   1     7.154179021431    79.44609788   288.84070392
 H     13   5   3     2.011091446531    21.88955262    61.76739972
 C     13   5   3     2.291366739827   158.08783620   241.76739972
 H     15  13   5     2.005641604207   179.99638953   180.00000000

---------------------
BASIS SET INFORMATION
---------------------
There are 2 groups of distinct atoms

 Group   1 Type C   : 8s4p1d contracted to 4s2p1d pattern {5111/31/1}
 Group   2 Type H   : 4s contracted to 2s pattern {31}

Atom   0C    basis set group =>   1
Atom   1H    basis set group =>   2
Atom   2C    basis set group =>   1
Atom   3H    basis set group =>   2
Atom   4C    basis set group =>   1
Atom   5H    basis set group =>   2
Atom   6C    basis set group =>   1
Atom   7H    basis set group =>   2
Atom   8C    basis set group =>   1
Atom   9H    basis set group =>   2
Atom  10C    basis set group =>   1
Atom  11H    basis set group =>   2
Atom  12C    basis set group =>   1
Atom  13H    basis set group =>   2
Atom  14C    basis set group =>   1
Atom  15H    basis set group =>   2
---------------------------------
AUXILIARY/J BASIS SET INFORMATION
---------------------------------
There are 2 groups of distinct atoms

 Group   1 Type C   : 12s5p4d2f1g contracted to 6s4p3d1f1g pattern {711111/2111/211/2/1}
 Group   2 Type H   : 5s2p1d contracted to 3s1p1d pattern {311/2/1}

Atom   0C    basis set group =>   1
Atom   1H    basis set group =>   2
Atom   2C    basis set group =>   1
Atom   3H    basis set group =>   2
Atom   4C    basis set group =>   1
Atom   5H    basis set group =>   2
Atom   6C    basis set group =>   1
Atom   7H    basis set group =>   2
Atom   8C    basis set group =>   1
Atom   9H    basis set group =>   2
Atom  10C    basis set group =>   1
Atom  11H    basis set group =>   2
Atom  12C    basis set group =>   1
Atom  13H    basis set group =>   2
Atom  14C    basis set group =>   1
Atom  15H    basis set group =>   2


           ************************************************************
           *        Program running with 4 parallel MPI-processes     *
           *              working on a common directory               *
           ************************************************************
------------------------------------------------------------------------------
                           ORCA GTO INTEGRAL CALCULATION
                           -- RI-GTO INTEGRALS CHOSEN --
------------------------------------------------------------------------------
------------------------------------------------------------------------------
                   ___                                                        
                  /   \      - P O W E R E D   B Y -                         
                 /     \                                                     
                 |  |  |   _    _      __       _____    __    __             
                 |  |  |  | |  | |    /  \     |  _  \  |  |  /  |          
                  \  \/   | |  | |   /    \    | | | |  |  | /  /          
                 / \  \   | |__| |  /  /\  \   | |_| |  |  |/  /          
                |  |  |   |  __  | /  /__\  \  |    /   |      \           
                |  |  |   | |  | | |   __   |  |    \   |  |\   \          
                \     /   | |  | | |  |  |  |  | |\  \  |  | \   \       
                 \___/    |_|  |_| |__|  |__|  |_| \__\ |__|  \__/        
                                                                              
                      - O R C A' S   B I G   F R I E N D -                    
                                      &                                       
                       - I N T E G R A L  F E E D E R -                       
                                                                              
 v1 FN, 2020, v2 2021                                                         
------------------------------------------------------------------------------


Reading SHARK input file pbeh-3c.SHARKINP.tmp ... ok
----------------------
SHARK INTEGRAL PACKAGE
----------------------

Number of atoms                             ...     16
Number of basis functions                   ...    136
Number of shells                            ...     72
Maximum angular momentum                    ...      2
Integral batch strategy                     ... SHARK/LIBINT Hybrid
RI-J (if used) integral strategy            ... SPLIT-RIJ (Revised 2003 algorithm where possible)
Printlevel                                  ...      1
Contraction scheme used                     ... SEGMENTED contraction
Coulomb Range Separation                    ... NOT USED
Exchange Range Separation                   ... NOT USED
Finite Nucleus Model                        ... NOT USED
Auxiliary Coulomb fitting basis             ... AVAILABLE
   # of basis functions in Aux-J            ...    480
   # of shells in Aux-J                     ...    160
   Maximum angular momentum in Aux-J        ...      4
Auxiliary J/K fitting basis                 ... NOT available
Auxiliary Correlation fitting basis         ... NOT available
Auxiliary 'external' fitting basis          ... NOT available
Integral threshold                          ...     2.500000e-11
Primitive cut-off                           ...     2.500000e-12
Primitive pair pre-selection threshold      ...     2.500000e-12

Calculating pre-screening integrals         ... done (  0.1 sec) Dimension = 72
Organizing shell pair data                  ... done (  0.3 sec)
Shell pair information
Total number of shell pairs                 ...      2628
Shell pairs after pre-screening             ...      2330
Total number of primitive shell pairs       ...      9444
Primitive shell pairs kept                  ...      5961
          la=0 lb=0:    980 shell pairs
          la=1 lb=0:    732 shell pairs
          la=1 lb=1:    136 shell pairs
          la=2 lb=0:    324 shell pairs
          la=2 lb=1:    128 shell pairs
          la=2 lb=2:     30 shell pairs

Calculating one electron integrals          ... done (  0.1 sec)
Calculating RI/J V-Matrix + Cholesky decomp.... done (  0.3 sec)
Calculating Nuclear repulsion               ... done (  0.1 sec) ENN=    300.934319105798 Eh

SHARK setup successfully completed in   1.9 seconds

Maximum memory used throughout the entire GTOINT-calculation: 11.0 MB


           ************************************************************
           *        Program running with 4 parallel MPI-processes     *
           *              working on a common directory               *
           ************************************************************
-------------------------------------------------------------------------------
                                 ORCA SCF
-------------------------------------------------------------------------------

------------
SCF SETTINGS
------------
Hamiltonian:
 Density Functional     Method          .... DFT(GTOs)
 Exchange Functional    Exchange        .... PBE
   PBE kappa parameter   XKappa         ....  1.024500
   PBE mue parameter    XMuePBE         ....  0.123457
 Correlation Functional Correlation     .... PBE
   PBE beta parameter  CBetaPBE         ....  0.030000
 LDA part of GGA corr.  LDAOpt          .... PW91-LDA
 Gradients option       PostSCFGGA      .... off
 Hybrid DFT is turned on
   Fraction HF Exchange ScalHFX         ....  0.420000
   Scaling of DF-GGA-X  ScalDFX         ....  0.580000
   Scaling of DF-GGA-C  ScalDFC         ....  1.000000
   Scaling of DF-LDA-C  ScalLDAC        ....  1.000000
   Perturbative correction              ....  0.000000
   Density functional embedding theory  .... OFF
 RI-approximation to the Coulomb term is turned on
   Number of AuxJ basis functions       .... 480
   RIJ-ON(X) (HFX calculated with O(N)) .... on
   Number of AuxJ basis functions       .... 480
   RIJ-COSX (HFX calculated with COS-X)).... on


General Settings:
 Integral files         IntName         .... pbeh-3c
 Hartree-Fock type      HFTyp           .... RHF
 Total Charge           Charge          ....    0
 Multiplicity           Mult            ....    1
 Number of Electrons    NEL             ....   56
 Basis Dimension        Dim             ....  136
 Nuclear Repulsion      ENuc            ....    300.9343191058 Eh

Convergence Acceleration:
 DIIS                   CNVDIIS         .... on
   Start iteration      DIISMaxIt       ....    12
   Startup error        DIISStart       ....  0.200000
   # of expansion vecs  DIISMaxEq       ....     5
   Bias factor          DIISBfac        ....   1.050
   Max. coefficient     DIISMaxC        ....  10.000
 Trust-Rad. Augm. Hess. CNVTRAH         .... auto
   Auto Start mean grad. ratio tolernc. ....  1.125000
   Auto Start start iteration           ....    20
   Auto Start num. interpolation iter.  ....    10
   Max. Number of Micro iterations      ....    16
   Max. Number of Macro iterations      .... Maxiter - #DIIS iter
   Number of Davidson start vectors     ....     2
   Converg. threshold I  (grad. norm)   ....   1.000e-05
   Converg. threshold II (energy diff.) ....   1.000e-08
   Grad. Scal. Fac. for Micro threshold ....   0.100
   Minimum threshold for Micro iter.    ....   0.010
   NR start threshold (gradient norm)   ....   0.001
   Initial trust radius                 ....   0.400
   Minimum AH scaling param. (alpha)    ....   1.000
   Maximum AH scaling param. (alpha)    .... 1000.000
   Orbital update algorithm             .... Taylor
   White noise on init. David. guess    .... on
   Maximum white noise                  ....   0.010
   Quad. conv. algorithm                .... NR
   COSX micro iterations for RIJONX calc.... off
 SOSCF                  CNVSOSCF        .... on
   Start iteration      SOSCFMaxIt      ....   150
   Startup grad/error   SOSCFStart      ....  0.003300
 Level Shifting         CNVShift        .... on
   Level shift para.    LevelShift      ....    0.2500
   Turn off err/grad.   ShiftErr        ....    0.0010
 Zerner damping         CNVZerner       .... off
 Static damping         CNVDamp         .... on
   Fraction old density DampFac         ....    0.7000
   Max. Damping (<1)    DampMax         ....    0.9800
   Min. Damping (>=0)   DampMin         ....    0.0000
   Turn off err/grad.   DampErr         ....    0.1000
 Fernandez-Rico         CNVRico         .... off

SCF Procedure:
 Maximum # iterations   MaxIter         ....   125
 SCF integral mode      SCFMode         .... Direct
   Integral package                     .... SHARK and LIBINT hybrid scheme
 Reset frequency        DirectResetFreq ....    20
 Integral Threshold     Thresh          ....  2.500e-11 Eh
 Primitive CutOff       TCut            ....  2.500e-12 Eh

Convergence Tolerance:
 Convergence Check Mode ConvCheckMode   .... Total+1el-Energy
 Convergence forced     ConvForced      .... 0
 Energy Change          TolE            ....  1.000e-08 Eh
 1-El. energy change                    ....  1.000e-05 Eh
 Orbital Gradient       TolG            ....  1.000e-05
 Orbital Rotation angle TolX            ....  1.000e-05
 DIIS Error             TolErr          ....  5.000e-07


Diagonalization of the overlap matrix:
Smallest eigenvalue                        ... 4.897e-04
Time for diagonalization                   ...    0.003 sec
Threshold for overlap eigenvalues          ... 1.000e-08
Number of eigenvalues below threshold      ... 0
Time for construction of square roots      ...    0.321 sec
Total time needed                          ...    0.325 sec

--------------------------------
INITIAL GUESS: MINIMAL BASIS EHT
--------------------------------
The minimal basis has 48 functions
EHT matrix was diagonalized
Basis set overlap was calculated now projecting the orbitals
Using GuessMode=FMatrix for the initial guess
C*T matrix was formed
Effective Fockian was calculated
Effective Fockian was diagonalized
Initial density was built
                      ------------------
                      INITIAL GUESS DONE
                      ------------------
-------------------
DFT GRID GENERATION
-------------------

General Integration Accuracy     IntAcc      ... 4.959
Radial Grid Type                 RadialGrid  ... OptM3 with GC (2021)
Angular Grid (max. ang.)         AngularGrid ... 6 (Lebedev-590)
Angular grid pruning method      GridPruning ... 4 (adaptive)
Weight generation scheme         WeightScheme... Becke
Basis function cutoff            BFCut       ... 1.0000e-11
Integration weight cutoff        WCut        ... 1.0000e-14
Angular grids for H and He will be reduced by one unit
Partially contracted basis set               ... off
Rotationally invariant grid construction     ... off

Total number of grid points                  ...   184435
Total number of batches                      ...     2890
Average number of points per batch           ...       63
Average number of grid points per atom       ...    11527
Time for grid setup =    3.994 sec

--------------------
COSX GRID GENERATION
--------------------

GRIDX 1
-------
General Integration Accuracy     IntAcc      ... 4.020
Radial Grid Type                 RadialGrid  ... OptM3 with GC (2021)
Angular Grid (max. ang.)         AngularGrid ... 2 (Lebedev-110)
Angular grid pruning method      GridPruning ... 4 (adaptive)
Weight generation scheme         WeightScheme... Becke
Basis function cutoff            BFCut       ... 1.0000e-11
Integration weight cutoff        WCut        ... 1.0000e-14
Angular grids for H and He will be reduced by one unit
Partially contracted basis set               ... on
Rotationally invariant grid construction     ... off

Total number of grid points                  ...    20503
Total number of batches                      ...      331
Average number of points per batch           ...       61
Average number of grid points per atom       ...     1281
UseSFitting                                  ... on

GRIDX 2
-------
General Integration Accuracy     IntAcc      ... 4.338
Radial Grid Type                 RadialGrid  ... OptM3 with GC (2021)
Angular Grid (max. ang.)         AngularGrid ... 3 (Lebedev-194)
Angular grid pruning method      GridPruning ... 4 (adaptive)
Weight generation scheme         WeightScheme... Becke
Basis function cutoff            BFCut       ... 1.0000e-11
Integration weight cutoff        WCut        ... 1.0000e-14
Angular grids for H and He will be reduced by one unit
Partially contracted basis set               ... on
Rotationally invariant grid construction     ... off

Total number of grid points                  ...    45008
Total number of batches                      ...      712
Average number of points per batch           ...       63
Average number of grid points per atom       ...     2813
UseSFitting                                  ... on

GRIDX 3
-------
General Integration Accuracy     IntAcc      ... 4.871
Radial Grid Type                 RadialGrid  ... OptM3 with GC (2021)
Angular Grid (max. ang.)         AngularGrid ... 4 (Lebedev-302)
Angular grid pruning method      GridPruning ... 4 (adaptive)
Weight generation scheme         WeightScheme... Becke
Basis function cutoff            BFCut       ... 1.0000e-11
Integration weight cutoff        WCut        ... 1.0000e-14
Angular grids for H and He will be reduced by one unit
Partially contracted basis set               ... on
Rotationally invariant grid construction     ... off

Total number of grid points                  ...    86210
Total number of batches                      ...     1356
Average number of points per batch           ...       63
Average number of grid points per atom       ...     5388
UseSFitting                                  ... on

Time for X-Grid setup             =    3.730 sec

--------------
SCF ITERATIONS
--------------
ITER       Energy         Delta-E        Max-DP      RMS-DP      [F,P]     Damp
               ***  Starting incremental Fock matrix formation  ***
  0   -308.0060628662   0.000000000000 0.07320533  0.00370045  0.5304987 0.7000
  1   -308.2567107261  -0.250647859927 0.05270288  0.00271611  0.3765297 0.7000
  2   -308.4378410610  -0.181130334880 0.03864635  0.00199646  0.2648761 0.7000
                               ***Turning on DIIS***
  3   -308.5674854939  -0.129644432904 0.02793742  0.00146894  0.1862480 0.7000
  4   -308.6598678853  -0.092382391487 0.02132595  0.00114709  0.1309458 0.7000
  5   -308.7255082053  -0.065640319984 0.05128649  0.00284179  0.0918827 0.0000
                      *** Initiating the SOSCF procedure ***
                           *** Shutting down DIIS ***
                      *** Re-Reading the Fockian *** 
                      *** Removing any level shift *** 
ITER      Energy       Delta-E        Grad      Rot      Max-DP    RMS-DP
  6   -308.88259144  -0.1570832388  0.001872  0.001872  0.002893  0.000101
               *** Restarting incremental Fock matrix formation ***
  7   -308.88267301  -0.0000815641  0.000721  0.000935  0.001340  0.000053
  8   -308.88268449  -0.0000114844  0.000138  0.000233  0.000394  0.000013
  9   -308.88268483  -0.0000003404  0.000119  0.000186  0.000225  0.000005
 10   -308.88268489  -0.0000000525  0.000087  0.000088  0.000132  0.000003
 11   -308.88268494  -0.0000000512  0.000016  0.000019  0.000022  0.000001
 12   -308.88268494  -0.0000000072  0.000008  0.000006  0.000009  0.000001
                 **** Energy Check signals convergence ****
              ***Rediagonalizing the Fockian in SOSCF/NRSCF***

               *****************************************************
               *                     SUCCESS                       *
               *           SCF CONVERGED AFTER  13 CYCLES          *
               *****************************************************

Old exchange energy                            =    -18.550368746 Eh
New exchange energy                            =    -18.550355931 Eh
Exchange energy change after final integration =      0.000012815 Eh
Total energy after final integration           =   -308.882672125 Eh
Final COS-X integration done in                =     3.840 sec

----------------
TOTAL SCF ENERGY
----------------

Total Energy       :         -308.88267212 Eh           -8405.12482 eV

Components:
Nuclear Repulsion  :          300.93431911 Eh            8188.83914 eV
Electronic Energy  :         -609.81699123 Eh          -16593.96395 eV
One Electron Energy:        -1011.00660769 Eh          -27510.88842 eV
Two Electron Energy:          401.18961646 Eh           10916.92447 eV
Max COSX asymmetry :            0.00000072 Eh               0.00002 eV

Virial components:
Potential Energy   :         -615.15059295 Eh          -16739.09863 eV
Kinetic Energy     :          306.26792082 Eh            8333.97382 eV
Virial Ratio       :            2.00853746


DFT components:
N(Alpha)           :       28.000002854471 electrons
N(Beta)            :       28.000002854471 electrons
N(Total)           :       56.000005708942 electrons
E(X)               :      -24.622762288207 Eh       
E(C)               :       -2.381263792393 Eh       
E(XC)              :      -27.004026080600 Eh       
DFET-embed. en.    :        0.000000000000 Eh       

---------------
SCF CONVERGENCE
---------------

  Last Energy change         ...    4.4461e-09  Tolerance :   1.0000e-08
  Last MAX-Density change    ...    1.1102e-15  Tolerance :   1.0000e-07
  Last RMS-Density change    ...    3.2120e-17  Tolerance :   5.0000e-09
  Last Orbital Gradient      ...    7.1601e-07  Tolerance :   1.0000e-05
  Last Orbital Rotation      ...    1.1277e-06  Tolerance :   1.0000e-05

             **** THE GBW FILE WAS UPDATED (pbeh-3c.gbw) ****
             **** DENSITY pbeh-3c.scfp WAS UPDATED ****
             **** ENERGY FILE WAS UPDATED (pbeh-3c.en.tmp) ****
             **** THE GBW FILE WAS UPDATED (pbeh-3c.gbw) ****
             **** DENSITY pbeh-3c.scfp WAS UPDATED ****
----------------
ORBITAL ENERGIES
----------------

  NO   OCC          E(Eh)            E(eV) 
   0   2.0000     -10.457294      -284.5574 
   1   2.0000     -10.457038      -284.5505 
   2   2.0000     -10.457025      -284.5501 
   3   2.0000     -10.456426      -284.5338 
   4   2.0000     -10.456411      -284.5334 
   5   2.0000     -10.456190      -284.5274 
   6   2.0000     -10.444538      -284.2103 
   7   2.0000     -10.442189      -284.1464 
   8   2.0000      -0.961405       -26.1612 
   9   2.0000      -0.843869       -22.9628 
  10   2.0000      -0.843716       -22.9587 
  11   2.0000      -0.826362       -22.4864 
  12   2.0000      -0.686660       -18.6850 
  13   2.0000      -0.686595       -18.6832 
  14   2.0000      -0.625002       -17.0072 
  15   2.0000      -0.599632       -16.3168 
  16   2.0000      -0.546138       -14.8612 
  17   2.0000      -0.532735       -14.4965 
  18   2.0000      -0.516410       -14.0522 
  19   2.0000      -0.489430       -13.3181 
  20   2.0000      -0.489256       -13.3133 
  21   2.0000      -0.428089       -11.6489 
  22   2.0000      -0.405696       -11.0396 
  23   2.0000      -0.405658       -11.0385 
  24   2.0000      -0.325312        -8.8522 
  25   2.0000      -0.325308        -8.8521 
  26   2.0000      -0.301345        -8.2000 
  27   2.0000      -0.301230        -8.1969 
  28   0.0000       0.010376         0.2823 
  29   0.0000       0.010439         0.2841 
  30   0.0000       0.081050         2.2055 
  31   0.0000       0.081051         2.2055 
  32   0.0000       0.134663         3.6644 
  33   0.0000       0.176038         4.7902 
  34   0.0000       0.187993         5.1156 
  35   0.0000       0.196836         5.3562 
  36   0.0000       0.196900         5.3579 
  37   0.0000       0.217840         5.9277 
  38   0.0000       0.217932         5.9302 
  39   0.0000       0.224783         6.1167 
  40   0.0000       0.249315         6.7842 
  41   0.0000       0.321122         8.7382 
  42   0.0000       0.321138         8.7386 
  43   0.0000       0.321964         8.7611 
  44   0.0000       0.321969         8.7612 
  45   0.0000       0.402502        10.9526 
  46   0.0000       0.443415        12.0659 
  47   0.0000       0.510086        13.8801 
  48   0.0000       0.510103        13.8806 
  49   0.0000       0.530859        14.4454 
  50   0.0000       0.542174        14.7533 
  51   0.0000       0.577923        15.7261 
  52   0.0000       0.577946        15.7267 
  53   0.0000       0.582860        15.8604 
  54   0.0000       0.592580        16.1249 
  55   0.0000       0.610474        16.6118 
  56   0.0000       0.610774        16.6200 
  57   0.0000       0.617014        16.7898 
  58   0.0000       0.617155        16.7936 
  59   0.0000       0.648305        17.6413 
  60   0.0000       0.648331        17.6420 
  61   0.0000       0.663505        18.0549 
  62   0.0000       0.668336        18.1864 
  63   0.0000       0.715311        19.4646 
  64   0.0000       0.715374        19.4663 
  65   0.0000       0.724699        19.7201 
  66   0.0000       0.744389        20.2558 
  67   0.0000       0.819000        22.2861 
  68   0.0000       0.861532        23.4435 
  69   0.0000       0.936806        25.4918 
  70   0.0000       0.936891        25.4941 
  71   0.0000       0.961271        26.1575 
  72   0.0000       0.961361        26.1600 
  73   0.0000       0.961372        26.1603 
  74   0.0000       1.034404        28.1476 
  75   0.0000       1.034455        28.1490 
  76   0.0000       1.048114        28.5206 
  77   0.0000       1.080961        29.4144 
  78   0.0000       1.081214        29.4213 
  79   0.0000       1.088812        29.6281 
  80   0.0000       1.088961        29.6321 
  81   0.0000       1.147387        31.2220 
  82   0.0000       1.163799        31.6686 
  83   0.0000       1.292029        35.1579 
  84   0.0000       1.292082        35.1593 
  85   0.0000       1.297504        35.3069 
  86   0.0000       1.347581        36.6695 
  87   0.0000       1.445538        39.3351 
  88   0.0000       1.528741        41.5992 
  89   0.0000       1.528824        41.6014 
  90   0.0000       1.558717        42.4148 
  91   0.0000       1.558909        42.4201 
  92   0.0000       1.567060        42.6419 
  93   0.0000       1.567064        42.6420 
  94   0.0000       1.571826        42.7715 
  95   0.0000       1.572066        42.7781 
  96   0.0000       1.610211        43.8161 
  97   0.0000       1.610212        43.8161 
  98   0.0000       1.808452        49.2105 
  99   0.0000       1.811572        49.2954 
 100   0.0000       1.962484        53.4019 
 101   0.0000       2.009117        54.6709 
 102   0.0000       2.009118        54.6709 
 103   0.0000       2.052516        55.8518 
 104   0.0000       2.052828        55.8603 
 105   0.0000       2.126301        57.8596 
 106   0.0000       2.126562        57.8667 
 107   0.0000       2.187467        59.5240 
 108   0.0000       2.187489        59.5246 
 109   0.0000       2.194182        59.7067 
 110   0.0000       2.194663        59.7198 
 111   0.0000       2.363170        64.3051 
 112   0.0000       2.364883        64.3517 
 113   0.0000       2.365017        64.3554 
 114   0.0000       2.550137        69.3928 
 115   0.0000       2.550137        69.3928 
 116   0.0000       2.573820        70.0372 
 117   0.0000       2.573909        70.0396 
 118   0.0000       2.603643        70.8487 
 119   0.0000       2.720933        74.0404 
 120   0.0000       2.734419        74.4073 
 121   0.0000       2.734555        74.4110 
 122   0.0000       2.781355        75.6845 
 123   0.0000       2.781496        75.6884 
 124   0.0000       2.830933        77.0336 
 125   0.0000       3.050957        83.0208 
 126   0.0000       3.428120        93.2839 
 127   0.0000       3.441863        93.6579 
 128   0.0000      13.257334       360.7504 
 129   0.0000      13.329927       362.7257 
 130   0.0000      13.626871       370.8060 
 131   0.0000      13.627183       370.8145 
 132   0.0000      14.095163       383.5489 
 133   0.0000      14.095587       383.5604 
 134   0.0000      14.412272       392.1779 
 135   0.0000      14.533186       395.4681 

                    ********************************
                    * MULLIKEN POPULATION ANALYSIS *
                    ********************************

-----------------------
MULLIKEN ATOMIC CHARGES
-----------------------
   0 C :   -0.226769
   1 H :    0.227563
   2 C :   -0.226741
   3 H :    0.227579
   4 C :   -0.226922
   5 H :    0.227549
   6 C :   -0.226741
   7 H :    0.227579
   8 C :   -0.226769
   9 H :    0.227563
  10 C :   -0.227149
  11 H :    0.227544
  12 C :   -0.211812
  13 H :    0.256583
  14 C :   -0.280815
  15 H :    0.231759
Sum of atomic charges:   -0.0000000

--------------------------------
MULLIKEN REDUCED ORBITAL CHARGES
--------------------------------
  0 C s       :     3.249087  s :     3.249087
      pz      :     1.012622  p :     2.938066
      px      :     0.936155
      py      :     0.989290
      dz2     :     0.010438  d :     0.039617
      dxz     :     0.014453
      dyz     :     0.003437
      dx2y2   :     0.005621
      dxy     :     0.005668
  1 H s       :     0.772437  s :     0.772437
  2 C s       :     3.249130  s :     3.249130
      pz      :     1.012613  p :     2.937997
      px      :     0.936124
      py      :     0.989261
      dz2     :     0.010440  d :     0.039614
      dxz     :     0.014451
      dyz     :     0.003435
      dx2y2   :     0.005621
      dxy     :     0.005667
  3 H s       :     0.772421  s :     0.772421
  4 C s       :     3.249232  s :     3.249232
      pz      :     0.897743  p :     2.938089
      px      :     1.051093
      py      :     0.989254
      dz2     :     0.012012  d :     0.039601
      dxz     :     0.011116
      dyz     :     0.006776
      dx2y2   :     0.007377
      dxy     :     0.002320
  5 H s       :     0.772451  s :     0.772451
  6 C s       :     3.249130  s :     3.249130
      pz      :     1.012613  p :     2.937998
      px      :     0.936124
      py      :     0.989261
      dz2     :     0.010440  d :     0.039614
      dxz     :     0.014451
      dyz     :     0.003435
      dx2y2   :     0.005621
      dxy     :     0.005667
  7 H s       :     0.772421  s :     0.772421
  8 C s       :     3.249087  s :     3.249087
      pz      :     1.012621  p :     2.938066
      px      :     0.936155
      py      :     0.989290
      dz2     :     0.010438  d :     0.039617
      dxz     :     0.014453
      dyz     :     0.003437
      dx2y2   :     0.005621
      dxy     :     0.005668
  9 H s       :     0.772437  s :     0.772437
 10 C s       :     3.249216  s :     3.249216
      pz      :     0.897764  p :     2.938328
      px      :     1.051177
      py      :     0.989387
      dz2     :     0.012012  d :     0.039604
      dxz     :     0.011118
      dyz     :     0.006778
      dx2y2   :     0.007374
      dxy     :     0.002322
 11 H s       :     0.772456  s :     0.772456
 12 C s       :     3.339683  s :     3.339683
      pz      :     0.980198  p :     2.846614
      px      :     0.980191
      py      :     0.886225
      dz2     :     0.002783  d :     0.025515
      dxz     :     0.000001
      dyz     :     0.007190
      dx2y2   :     0.008349
      dxy     :     0.007192
 13 H s       :     0.743417  s :     0.743417
 14 C s       :     3.339690  s :     3.339690
      pz      :     1.007916  p :     2.916345
      px      :     1.007910
      py      :     0.900520
      dz2     :     0.002831  d :     0.024780
      dxz     :     0.000001
      dyz     :     0.006728
      dx2y2   :     0.008492
      dxy     :     0.006729
 15 H s       :     0.768241  s :     0.768241


                     *******************************
                     * LOEWDIN POPULATION ANALYSIS *
                     *******************************

----------------------
LOEWDIN ATOMIC CHARGES
----------------------
   0 C :   -0.138150
   1 H :    0.139344
   2 C :   -0.138099
   3 H :    0.139360
   4 C :   -0.138025
   5 H :    0.139333
   6 C :   -0.138099
   7 H :    0.139360
   8 C :   -0.138150
   9 H :    0.139344
  10 C :   -0.138188
  11 H :    0.139325
  12 C :   -0.153253
  13 H :    0.170876
  14 C :   -0.184246
  15 H :    0.159267

-------------------------------
LOEWDIN REDUCED ORBITAL CHARGES
-------------------------------
  0 C s       :     2.895352  s :     2.895352
      pz      :     1.084260  p :     3.153359
      px      :     1.087963
      py      :     0.981137
      dz2     :     0.023896  d :     0.089439
      dxz     :     0.034770
      dyz     :     0.006059
      dx2y2   :     0.013301
      dxy     :     0.011414
  1 H s       :     0.860656  s :     0.860656
  2 C s       :     2.895359  s :     2.895359
      pz      :     1.084266  p :     3.153310
      px      :     1.087939
      py      :     0.981104
      dz2     :     0.023897  d :     0.089431
      dxz     :     0.034766
      dyz     :     0.006055
      dx2y2   :     0.013302
      dxy     :     0.011411
  3 H s       :     0.860640  s :     0.860640
  4 C s       :     2.895426  s :     2.895426
      pz      :     1.089608  p :     3.153214
      px      :     1.082492
      py      :     0.981113
      dz2     :     0.030806  d :     0.089386
      dxz     :     0.029018
      dyz     :     0.014073
      dx2y2   :     0.012108
      dxy     :     0.003380
  5 H s       :     0.860667  s :     0.860667
  6 C s       :     2.895359  s :     2.895359
      pz      :     1.084266  p :     3.153310
      px      :     1.087939
      py      :     0.981104
      dz2     :     0.023897  d :     0.089431
      dxz     :     0.034766
      dyz     :     0.006055
      dx2y2   :     0.013302
      dxy     :     0.011411
  7 H s       :     0.860640  s :     0.860640
  8 C s       :     2.895352  s :     2.895352
      pz      :     1.084260  p :     3.153359
      px      :     1.087963
      py      :     0.981137
      dz2     :     0.023896  d :     0.089439
      dxz     :     0.034770
      dyz     :     0.006059
      dx2y2   :     0.013301
      dxy     :     0.011414
  9 H s       :     0.860656  s :     0.860656
 10 C s       :     2.895409  s :     2.895409
      pz      :     1.089636  p :     3.153381
      px      :     1.082495
      py      :     0.981249
      dz2     :     0.030809  d :     0.089398
      dxz     :     0.029022
      dyz     :     0.014078
      dx2y2   :     0.012105
      dxy     :     0.003383
 11 H s       :     0.860675  s :     0.860675
 12 C s       :     2.998921  s :     2.998921
      pz      :     0.976718  p :     3.105875
      px      :     0.976737
      py      :     1.152421
      dz2     :     0.005251  d :     0.048456
      dxz     :     0.000001
      dyz     :     0.013725
      dx2y2   :     0.015752
      dxy     :     0.013727
 13 H s       :     0.829124  s :     0.829124
 14 C s       :     2.993642  s :     2.993642
      pz      :     0.998567  p :     3.143455
      px      :     0.998585
      py      :     1.146302
      dz2     :     0.005327  d :     0.047148
      dxz     :     0.000001
      dyz     :     0.012919
      dx2y2   :     0.015979
      dxy     :     0.012922
 15 H s       :     0.840733  s :     0.840733


                      *****************************
                      * MAYER POPULATION ANALYSIS *
                      *****************************

  NA   - Mulliken gross atomic population
  ZA   - Total nuclear charge
  QA   - Mulliken gross atomic charge
  VA   - Mayer's total valence
  BVA  - Mayer's bonded valence
  FA   - Mayer's free valence

  ATOM       NA         ZA         QA         VA         BVA        FA
  0 C      6.2268     6.0000    -0.2268     3.8140     3.8140    -0.0000
  1 H      0.7724     1.0000     0.2276     0.9100     0.9100    -0.0000
  2 C      6.2267     6.0000    -0.2267     3.8140     3.8140    -0.0000
  3 H      0.7724     1.0000     0.2276     0.9100     0.9100     0.0000
  4 C      6.2269     6.0000    -0.2269     3.8141     3.8141     0.0000
  5 H      0.7725     1.0000     0.2275     0.9100     0.9100    -0.0000
  6 C      6.2267     6.0000    -0.2267     3.8140     3.8140    -0.0000
  7 H      0.7724     1.0000     0.2276     0.9100     0.9100    -0.0000
  8 C      6.2268     6.0000    -0.2268     3.8140     3.8140    -0.0000
  9 H      0.7724     1.0000     0.2276     0.9100     0.9100    -0.0000
 10 C      6.2271     6.0000    -0.2271     3.8141     3.8141     0.0000
 11 H      0.7725     1.0000     0.2275     0.9101     0.9101    -0.0000
 12 C      6.2118     6.0000    -0.2118     3.7367     3.7367     0.0000
 13 H      0.7434     1.0000     0.2566     0.9012     0.9012     0.0000
 14 C      6.2808     6.0000    -0.2808     3.7500     3.7500    -0.0000
 15 H      0.7682     1.0000     0.2318     0.9211     0.9211    -0.0000

  Mayer bond orders larger than 0.100000
B(  0-C ,  1-H ) :   0.9183 B(  0-C ,  2-C ) :   1.4229 B(  0-C , 10-C ) :   1.4228 
B(  2-C ,  3-H ) :   0.9183 B(  2-C ,  4-C ) :   1.4228 B(  4-C ,  5-H ) :   0.9183 
B(  4-C ,  6-C ) :   1.4228 B(  6-C ,  7-H ) :   0.9183 B(  6-C ,  8-C ) :   1.4229 
B(  8-C ,  9-H ) :   0.9183 B(  8-C , 10-C ) :   1.4228 B( 10-C , 11-H ) :   0.9183 
B( 12-C , 13-H ) :   0.9094 B( 12-C , 14-C ) :   2.8276 B( 14-C , 15-H ) :   0.9303 


-------
TIMINGS
-------

Total SCF time: 0 days 0 hours 1 min 29 sec 

Total time                  ....      89.949 sec
Sum of individual times     ....      83.632 sec  ( 93.0%)

Fock matrix formation       ....      71.620 sec  ( 79.6%)
  Split-RI-J                ....       6.495 sec  (  9.1% of F)
  Chain of spheres X        ....      28.831 sec  ( 40.3% of F)
  XC integration            ....      19.869 sec  ( 27.7% of F)
    Basis function eval.    ....       3.085 sec  ( 15.5% of XC)
    Density eval.           ....       1.831 sec  (  9.2% of XC)
    XC-Functional eval.     ....       1.345 sec  (  6.8% of XC)
    XC-Potential eval.      ....       1.125 sec  (  5.7% of XC)
Diagonalization             ....       0.474 sec  (  0.5%)
Density matrix formation    ....       0.076 sec  (  0.1%)
Population analysis         ....       0.612 sec  (  0.7%)
Initial guess               ....       0.060 sec  (  0.1%)
Orbital Transformation      ....       0.000 sec  (  0.0%)
Orbital Orthonormalization  ....       0.000 sec  (  0.0%)
DIIS solution               ....       1.795 sec  (  2.0%)
SOSCF solution              ....       1.270 sec  (  1.4%)
Grid generation             ....       7.724 sec  (  8.6%)

Maximum memory used throughout the entire SCF-calculation: 54.9 MB


-------------------------------------------------------------------------------
                          DFT DISPERSION CORRECTION                            
                                                                               
                              DFTD3 V3.1  Rev 1                                
                          USING Becke-Johnson damping                          
-------------------------------------------------------------------------------
The PBEh-3c composite method is recognized
Using three-body term ABC
Active option DFTDOPT                   ...         4   

molecular C6(AA) [au] = 3036.598497 


            DFT-D V3
 parameters
 s6 scaling factor         :     1.0000 
 a1 scaling factor         :     0.4860 
 s8 scaling factor         :     0.0000 
 a2 scaling factor         :     4.5000 
 Damping factor alpha9(ATM):    16.0000 
 ad hoc parameters k1-k3   :    16.0000     1.3333    -4.0000 

 Edisp/kcal,au: -5.171883721533  -0.008241920455 
 E6   /kcal   :  -5.199176545 
 E8   /kcal   :  -0.000000000 
 E6(ABC)      :   0.027292823 
 % E8         :   0.000000000 
 % E6(ABC)    :  -0.527715333 

-------------------------   ----------------
Dispersion correction           -0.008241920
-------------------------   ----------------

------------------   -----------------
gCP correction             0.017948071
------------------   -----------------

-------------------------   --------------------
FINAL SINGLE POINT ENERGY      -308.872965974016
-------------------------   --------------------


                            ***************************************
                            *     ORCA property calculations      *
                            ***************************************

                                    ---------------------
                                    Active property flags
                                    ---------------------
   (+) Dipole Moment


------------------------------------------------------------------------------
                       ORCA ELECTRIC PROPERTIES CALCULATION
------------------------------------------------------------------------------

Dipole Moment Calculation                       ... on
Quadrupole Moment Calculation                   ... off
Polarizability Calculation                      ... off
GBWName                                         ... pbeh-3c.gbw
Electron density                                ... pbeh-3c.scfp
The origin for moment calculation is the CENTER OF MASS  = (-0.000025,  0.002380  0.000000)

-------------
DIPOLE MOMENT
-------------
                                X             Y             Z
Electronic contribution:     -0.00053       0.20039       0.00000
Nuclear contribution   :      0.00024      -0.02060      -0.00000
                        -----------------------------------------
Total Dipole Moment    :     -0.00029       0.17978       0.00000
                        -----------------------------------------
Magnitude (a.u.)       :      0.17978
Magnitude (Debye)      :      0.45697



--------------------
Rotational spectrum 
--------------------
 
Rotational constants in cm-1:     0.095138     0.038681     0.038675 
Rotational constants in MHz :  2852.164002  1159.618208  1159.453190 

 Dipole components along the rotational axes: 
x,y,z [a.u.] :     0.179781     0.000000    -0.000933 
x,y,z [Debye]:     0.456968     0.000000    -0.002370 

 

Timings for individual modules:

Sum of individual times         ...       94.128 sec (=   1.569 min)
GTO integral calculation        ...        3.113 sec (=   0.052 min)   3.3 %
SCF iterations                  ...       91.015 sec (=   1.517 min)  96.7 %
                             ****ORCA TERMINATED NORMALLY****
TOTAL RUN TIME: 0 days 0 hours 1 minutes 38 seconds 558 msec
