
                                 *****************
                                 * O   R   C   A *
                                 *****************

                                            #,                                       
                                            ###                                      
                                            ####                                     
                                            #####                                    
                                            ######                                   
                                           ########,                                 
                                     ,,################,,,,,                         
                               ,,#################################,,                 
                          ,,##########################################,,             
                       ,#########################################, ''#####,          
                    ,#############################################,,   '####,        
                  ,##################################################,,,,####,       
                ,###########''''           ''''###############################       
              ,#####''   ,,,,##########,,,,          '''####'''          '####       
            ,##' ,,,,###########################,,,                        '##       
           ' ,,###''''                  '''############,,,                           
         ,,##''                                '''############,,,,        ,,,,,,###''
      ,#''                                            '''#######################'''  
     '                                                          ''''####''''         
             ,#######,   #######,   ,#######,      ##                                
            ,#'     '#,  ##    ##  ,#'     '#,    #''#        ######   ,####,        
            ##       ##  ##   ,#'  ##            #'  '#       #        #'  '#        
            ##       ##  #######   ##           ,######,      #####,   #    #        
            '#,     ,#'  ##    ##  '#,     ,#' ,#      #,         ##   #,  ,#        
             '#######'   ##     ##  '#######'  #'      '#     #####' # '####'        



                  #######################################################
                  #                        -***-                        #
                  #          Department of theory and spectroscopy      #
                  #    Directorship and core code : Frank Neese         #
                  #        Max Planck Institute fuer Kohlenforschung    #
                  #                Kaiser Wilhelm Platz 1               #
                  #                 D-45470 Muelheim/Ruhr               #
                  #                      Germany                        #
                  #                                                     #
                  #                  All rights reserved                #
                  #                        -***-                        #
                  #######################################################


                         Program Version 5.0.3 -  RELEASE  -


 With contributions from (in alphabetic order):
   Daniel Aravena         : Magnetic Suceptibility
   Michael Atanasov       : Ab Initio Ligand Field Theory (pilot matlab implementation)
   Alexander A. Auer      : GIAO ZORA, VPT2 properties, NMR spectrum
   Ute Becker             : Parallelization
   Giovanni Bistoni       : ED, misc. LED, open-shell LED, HFLD
   Martin Brehm           : Molecular dynamics
   Dmytro Bykov           : SCF Hessian
   Vijay G. Chilkuri      : MRCI spin determinant printing, contributions to CSF-ICE
   Dipayan Datta          : RHF DLPNO-CCSD density
   Achintya Kumar Dutta   : EOM-CC, STEOM-CC
   Dmitry Ganyushin       : Spin-Orbit,Spin-Spin,Magnetic field MRCI
   Miquel Garcia          : C-PCM and meta-GGA Hessian, CC/C-PCM, Gaussian charge scheme
   Yang Guo               : DLPNO-NEVPT2, F12-NEVPT2, CIM, IAO-localization
   Andreas Hansen         : Spin unrestricted coupled pair/coupled cluster methods
   Benjamin Helmich-Paris : MC-RPA, TRAH-SCF, COSX integrals
   Lee Huntington         : MR-EOM, pCC
   Robert Izsak           : Overlap fitted RIJCOSX, COSX-SCS-MP3, EOM
   Marcus Kettner         : VPT2
   Christian Kollmar      : KDIIS, OOCD, Brueckner-CCSD(T), CCSD density, CASPT2, CASPT2-K
   Simone Kossmann        : Meta GGA functionals, TD-DFT gradient, OOMP2, MP2 Hessian
   Martin Krupicka        : Initial AUTO-CI
   Lucas Lang             : DCDCAS
   Marvin Lechner         : AUTO-CI (C++ implementation), FIC-MRCC
   Dagmar Lenk            : GEPOL surface, SMD
   Dimitrios Liakos       : Extrapolation schemes; Compound Job, initial MDCI parallelization
   Dimitrios Manganas     : Further ROCIS development; embedding schemes
   Dimitrios Pantazis     : SARC Basis sets
   Anastasios Papadopoulos: AUTO-CI, single reference methods and gradients
   Taras Petrenko         : DFT Hessian,TD-DFT gradient, ASA, ECA, R-Raman, ABS, FL, XAS/XES, NRVS
   Peter Pinski           : DLPNO-MP2, DLPNO-MP2 Gradient
   Christoph Reimann      : Effective Core Potentials
   Marius Retegan         : Local ZFS, SOC
   Christoph Riplinger    : Optimizer, TS searches, QM/MM, DLPNO-CCSD(T), (RO)-DLPNO pert. Triples
   Tobias Risthaus        : Range-separated hybrids, TD-DFT gradient, RPA, STAB
   Michael Roemelt        : Original ROCIS implementation
   Masaaki Saitow         : Open-shell DLPNO-CCSD energy and density
   Barbara Sandhoefer     : DKH picture change effects
   Avijit Sen             : IP-ROCIS
   Kantharuban Sivalingam : CASSCF convergence, NEVPT2, FIC-MRCI
   Bernardo de Souza      : ESD, SOC TD-DFT
   Georgi Stoychev        : AutoAux, RI-MP2 NMR, DLPNO-MP2 response
   Willem Van den Heuvel  : Paramagnetic NMR
   Boris Wezisla          : Elementary symmetry handling
   Frank Wennmohs         : Technical directorship


 We gratefully acknowledge several colleagues who have allowed us to
 interface, adapt or use parts of their codes:
   Stefan Grimme, W. Hujo, H. Kruse, P. Pracht,  : VdW corrections, initial TS optimization,
                  C. Bannwarth, S. Ehlert          DFT functionals, gCP, sTDA/sTD-DF
   Ed Valeev, F. Pavosevic, A. Kumar             : LibInt (2-el integral package), F12 methods
   Garnet Chan, S. Sharma, J. Yang, R. Olivares  : DMRG
   Ulf Ekstrom                                   : XCFun DFT Library
   Mihaly Kallay                                 : mrcc  (arbitrary order and MRCC methods)
   Jiri Pittner, Ondrej Demel                    : Mk-CCSD
   Frank Weinhold                                : gennbo (NPA and NBO analysis)
   Christopher J. Cramer and Donald G. Truhlar   : smd solvation model
   Lars Goerigk                                  : TD-DFT with DH, B97 family of functionals
   V. Asgeirsson, H. Jonsson                     : NEB implementation
   FAccTs GmbH                                   : IRC, NEB, NEB-TS, DLPNO-Multilevel, CI-OPT
                                                   MM, QMMM, 2- and 3-layer-ONIOM, Crystal-QMMM,
                                                   LR-CPCM, SF, NACMEs, symmetry and pop. for TD-DFT,
                                                   nearIR, NL-DFT gradient (VV10), updates on ESD,
                                                   ML-optimized integration grids
   S Lehtola, MJT Oliveira, MAL Marques          : LibXC Library
   Liviu Ungur et al                             : ANISO software


 Your calculation uses the libint2 library for the computation of 2-el integrals
 For citations please refer to: http://libint.valeyev.net

 Your ORCA version has been built with support for libXC version: 5.1.0
 For citations please refer to: https://tddft.org/programs/libxc/

 This ORCA versions uses:
   CBLAS   interface :  Fast vector & matrix operations
   LAPACKE interface :  Fast linear algebra routines
   SCALAPACK package :  Parallel linear algebra routines
   Shared memory     :  Shared parallel matrices
   BLAS/LAPACK       :  OpenBLAS 0.3.15  USE64BITINT DYNAMIC_ARCH NO_AFFINITY Haswell SINGLE_THREADED
        Core in use  :  Haswell
   Copyright (c) 2011-2014, The OpenBLAS Project




***************************************
The coordinates will be read from file: dimethyloxirane.xyz
***************************************


Your calculation utilizes the geometrical counterpoise correction gCP
Please cite in your paper:
H.Kruse, S. Grimme J.Chem.Phys., 136, (2012), 154101 
   

Your calculation utilizes the atom-pairwise dispersion correction
with the Becke-Johnson damping scheme (D3BJ)
Cite in your paper:
S.Grimme, S.Ehrlich, L.Goerigk, J Comput Chem, (2011), 32, 1456–1465 
S.Grimme, J.Antony, S.Ehrlich and H.Krieg, J.Chem.Phys., 132, (2010), 154104 
   

Your calculation employs the composite approach PBEh-3c.
Please cite in your paper:
S. Grimme, J. G. Brandenburg, C. Bannwarth, A. Hansen J.Chem.Phys., 143, (2015), 054107 
   

================================================================================

----- Orbital basis set information -----
Your calculation utilizes the basis: def2-mSVP

----- AuxJ basis set information -----
Your calculation utilizes the auxiliary basis: def2/J
   F. Weigend, Phys. Chem. Chem. Phys. 8, 1057 (2006).

================================================================================
                                        WARNINGS
                       Please study these warnings very carefully!
================================================================================


INFO   : the flag for use of the SHARK integral package has been found!

================================================================================
                                       INPUT FILE
================================================================================
NAME = pbeh-3c.inp
|  1> ! PBEh-3c def2/J TightSCF DefGrid3
|  2> 
|  3> %maxcore 60000
|  4> 
|  5> %pal
|  6> nprocs 4
|  7> end
|  8> 
|  9> *xyzfile 0 1 dimethyloxirane.xyz
| 10> 
| 11>                          ****END OF INPUT****
================================================================================

                       ****************************
                       * Single Point Calculation *
                       ****************************

---------------------------------
CARTESIAN COORDINATES (ANGSTROEM)
---------------------------------
  C     -0.736020    0.158052    0.025162
  C      0.736575    0.155467   -0.024742
  O      0.002583    1.403025    0.001876
  H     -1.259306   -0.048061   -0.918327
  H      1.259074   -0.055138    0.918202
  C      1.515891   -0.144232   -1.277337
  H      2.433390    0.460856   -1.318068
  H      1.810243   -1.204499   -1.304761
  H      0.917646    0.077135   -2.171420
  C     -1.516417   -0.142126    1.276951
  H     -2.431691    0.466214    1.319344
  H     -1.814657   -1.201372    1.301547
  H     -0.917311    0.074680    2.171575

----------------------------
CARTESIAN COORDINATES (A.U.)
----------------------------
  NO LB      ZA    FRAG     MASS         X           Y           Z
   0 C     6.0000    0    12.011   -1.390875    0.298674    0.047550
   1 C     6.0000    0    12.011    1.391925    0.293790   -0.046756
   2 O     8.0000    0    15.999    0.004882    2.651332    0.003545
   3 H     1.0000    0     1.008   -2.379743   -0.090823   -1.735387
   4 H     1.0000    0     1.008    2.379306   -0.104196    1.735150
   5 C     6.0000    0    12.011    2.864618   -0.272559   -2.413817
   6 H     1.0000    0     1.008    4.598441    0.870893   -2.490787
   7 H     1.0000    0     1.008    3.420864   -2.276173   -2.465642
   8 H     1.0000    0     1.008    1.734099    0.145765   -4.103390
   9 C     6.0000    0    12.011   -2.865613   -0.268580    2.413087
  10 H     1.0000    0     1.008   -4.595230    0.881018    2.493199
  11 H     1.0000    0     1.008   -3.429205   -2.270265    2.459567
  12 H     1.0000    0     1.008   -1.733467    0.141124    4.103683

--------------------------------
INTERNAL COORDINATES (ANGSTROEM)
--------------------------------
 C      0   0   0     0.000000000000     0.00000000     0.00000000
 C      1   0   0     1.473442232881     0.00000000     0.00000000
 O      2   1   0     1.447705707614    59.41301358     0.00000000
 H      1   2   3     1.098400635087   116.53290835   102.23849764
 H      2   1   3     1.098409616883   116.53048899   102.24317561
 C      2   1   3     1.505372460155   123.08777418   256.24113386
 H      6   2   1     1.099816231803   110.68044972   144.89203573
 H      6   2   1     1.100709700725   110.54504456   264.27866625
 H      6   2   1     1.098310385956   110.80877893    24.77438353
 C      1   2   3     1.505357528905   123.08823195   256.24397248
 H     10   1   2     1.099819102529   110.68204486   144.88637468
 H     10   1   2     1.100706249098   110.54499557   264.27390758
 H     10   1   2     1.098310539785   110.80531612    24.76992729

---------------------------
INTERNAL COORDINATES (A.U.)
---------------------------
 C      0   0   0     0.000000000000     0.00000000     0.00000000
 C      1   0   0     2.784402294299     0.00000000     0.00000000
 O      2   1   0     2.735767309905    59.41301358     0.00000000
 H      1   2   3     2.075676385640   116.53290835   102.23849764
 H      2   1   3     2.075693358774   116.53048899   102.24317561
 C      2   1   3     2.844741679241   123.08777418   256.24113386
 H      6   2   1     2.078351475749   110.68044972   144.89203573
 H      6   2   1     2.080039887322   110.54504456   264.27866625
 H      6   2   1     2.075505839497   110.80877893    24.77438353
 C      1   2   3     2.844713463267   123.08823195   256.24397248
 H     10   1   2     2.078356900634   110.68204486   144.88637468
 H     10   1   2     2.080033364692   110.54499557   264.27390758
 H     10   1   2     2.075506130192   110.80531612    24.76992729

---------------------
BASIS SET INFORMATION
---------------------
There are 3 groups of distinct atoms

 Group   1 Type C   : 8s4p1d contracted to 4s2p1d pattern {5111/31/1}
 Group   2 Type O   : 8s4p1d contracted to 4s2p1d pattern {5111/31/1}
 Group   3 Type H   : 4s contracted to 2s pattern {31}

Atom   0C    basis set group =>   1
Atom   1C    basis set group =>   1
Atom   2O    basis set group =>   2
Atom   3H    basis set group =>   3
Atom   4H    basis set group =>   3
Atom   5C    basis set group =>   1
Atom   6H    basis set group =>   3
Atom   7H    basis set group =>   3
Atom   8H    basis set group =>   3
Atom   9C    basis set group =>   1
Atom  10H    basis set group =>   3
Atom  11H    basis set group =>   3
Atom  12H    basis set group =>   3
---------------------------------
AUXILIARY/J BASIS SET INFORMATION
---------------------------------
There are 3 groups of distinct atoms

 Group   1 Type C   : 12s5p4d2f1g contracted to 6s4p3d1f1g pattern {711111/2111/211/2/1}
 Group   2 Type O   : 12s5p4d2f1g contracted to 6s4p3d1f1g pattern {711111/2111/211/2/1}
 Group   3 Type H   : 5s2p1d contracted to 3s1p1d pattern {311/2/1}

Atom   0C    basis set group =>   1
Atom   1C    basis set group =>   1
Atom   2O    basis set group =>   2
Atom   3H    basis set group =>   3
Atom   4H    basis set group =>   3
Atom   5C    basis set group =>   1
Atom   6H    basis set group =>   3
Atom   7H    basis set group =>   3
Atom   8H    basis set group =>   3
Atom   9C    basis set group =>   1
Atom  10H    basis set group =>   3
Atom  11H    basis set group =>   3
Atom  12H    basis set group =>   3


           ************************************************************
           *        Program running with 4 parallel MPI-processes     *
           *              working on a common directory               *
           ************************************************************
------------------------------------------------------------------------------
                           ORCA GTO INTEGRAL CALCULATION
                           -- RI-GTO INTEGRALS CHOSEN --
------------------------------------------------------------------------------
------------------------------------------------------------------------------
                   ___                                                        
                  /   \      - P O W E R E D   B Y -                         
                 /     \                                                     
                 |  |  |   _    _      __       _____    __    __             
                 |  |  |  | |  | |    /  \     |  _  \  |  |  /  |          
                  \  \/   | |  | |   /    \    | | | |  |  | /  /          
                 / \  \   | |__| |  /  /\  \   | |_| |  |  |/  /          
                |  |  |   |  __  | /  /__\  \  |    /   |      \           
                |  |  |   | |  | | |   __   |  |    \   |  |\   \          
                \     /   | |  | | |  |  |  |  | |\  \  |  | \   \       
                 \___/    |_|  |_| |__|  |__|  |_| \__\ |__|  \__/        
                                                                              
                      - O R C A' S   B I G   F R I E N D -                    
                                      &                                       
                       - I N T E G R A L  F E E D E R -                       
                                                                              
 v1 FN, 2020, v2 2021                                                         
------------------------------------------------------------------------------


Reading SHARK input file pbeh-3c.SHARKINP.tmp ... ok
----------------------
SHARK INTEGRAL PACKAGE
----------------------

Number of atoms                             ...     13
Number of basis functions                   ...     91
Number of shells                            ...     51
Maximum angular momentum                    ...      2
Integral batch strategy                     ... SHARK/LIBINT Hybrid
RI-J (if used) integral strategy            ... SPLIT-RIJ (Revised 2003 algorithm where possible)
Printlevel                                  ...      1
Contraction scheme used                     ... SEGMENTED contraction
Coulomb Range Separation                    ... NOT USED
Exchange Range Separation                   ... NOT USED
Finite Nucleus Model                        ... NOT USED
Auxiliary Coulomb fitting basis             ... AVAILABLE
   # of basis functions in Aux-J            ...    333
   # of shells in Aux-J                     ...    115
   Maximum angular momentum in Aux-J        ...      4
Auxiliary J/K fitting basis                 ... NOT available
Auxiliary Correlation fitting basis         ... NOT available
Auxiliary 'external' fitting basis          ... NOT available
Integral threshold                          ...     2.500000e-11
Primitive cut-off                           ...     2.500000e-12
Primitive pair pre-selection threshold      ...     2.500000e-12

Calculating pre-screening integrals         ... done (  0.2 sec) Dimension = 51
Organizing shell pair data                  ... done (  0.2 sec)
Shell pair information
Total number of shell pairs                 ...      1326
Shell pairs after pre-screening             ...      1268
Total number of primitive shell pairs       ...      4842
Primitive shell pairs kept                  ...      3491
          la=0 lb=0:    614 shell pairs
          la=1 lb=0:    358 shell pairs
          la=1 lb=1:     55 shell pairs
          la=2 lb=0:    176 shell pairs
          la=2 lb=1:     50 shell pairs
          la=2 lb=2:     15 shell pairs

Calculating one electron integrals          ... done (  0.2 sec)
Calculating RI/J V-Matrix + Cholesky decomp.... done (  0.4 sec)
Calculating Nuclear repulsion               ... done (  0.1 sec) ENN=    180.886114049603 Eh

SHARK setup successfully completed in   2.5 seconds

Maximum memory used throughout the entire GTOINT-calculation: 10.0 MB


           ************************************************************
           *        Program running with 4 parallel MPI-processes     *
           *              working on a common directory               *
           ************************************************************
-------------------------------------------------------------------------------
                                 ORCA SCF
-------------------------------------------------------------------------------

------------
SCF SETTINGS
------------
Hamiltonian:
 Density Functional     Method          .... DFT(GTOs)
 Exchange Functional    Exchange        .... PBE
   PBE kappa parameter   XKappa         ....  1.024500
   PBE mue parameter    XMuePBE         ....  0.123457
 Correlation Functional Correlation     .... PBE
   PBE beta parameter  CBetaPBE         ....  0.030000
 LDA part of GGA corr.  LDAOpt          .... PW91-LDA
 Gradients option       PostSCFGGA      .... off
 Hybrid DFT is turned on
   Fraction HF Exchange ScalHFX         ....  0.420000
   Scaling of DF-GGA-X  ScalDFX         ....  0.580000
   Scaling of DF-GGA-C  ScalDFC         ....  1.000000
   Scaling of DF-LDA-C  ScalLDAC        ....  1.000000
   Perturbative correction              ....  0.000000
   Density functional embedding theory  .... OFF
 RI-approximation to the Coulomb term is turned on
   Number of AuxJ basis functions       .... 333
   RIJ-ON(X) (HFX calculated with O(N)) .... on
   Number of AuxJ basis functions       .... 333
   RIJ-COSX (HFX calculated with COS-X)).... on


General Settings:
 Integral files         IntName         .... pbeh-3c
 Hartree-Fock type      HFTyp           .... RHF
 Total Charge           Charge          ....    0
 Multiplicity           Mult            ....    1
 Number of Electrons    NEL             ....   40
 Basis Dimension        Dim             ....   91
 Nuclear Repulsion      ENuc            ....    180.8861140496 Eh

Convergence Acceleration:
 DIIS                   CNVDIIS         .... on
   Start iteration      DIISMaxIt       ....    12
   Startup error        DIISStart       ....  0.200000
   # of expansion vecs  DIISMaxEq       ....     5
   Bias factor          DIISBfac        ....   1.050
   Max. coefficient     DIISMaxC        ....  10.000
 Trust-Rad. Augm. Hess. CNVTRAH         .... auto
   Auto Start mean grad. ratio tolernc. ....  1.125000
   Auto Start start iteration           ....    20
   Auto Start num. interpolation iter.  ....    10
   Max. Number of Micro iterations      ....    16
   Max. Number of Macro iterations      .... Maxiter - #DIIS iter
   Number of Davidson start vectors     ....     2
   Converg. threshold I  (grad. norm)   ....   1.000e-05
   Converg. threshold II (energy diff.) ....   1.000e-08
   Grad. Scal. Fac. for Micro threshold ....   0.100
   Minimum threshold for Micro iter.    ....   0.010
   NR start threshold (gradient norm)   ....   0.001
   Initial trust radius                 ....   0.400
   Minimum AH scaling param. (alpha)    ....   1.000
   Maximum AH scaling param. (alpha)    .... 1000.000
   Orbital update algorithm             .... Taylor
   White noise on init. David. guess    .... on
   Maximum white noise                  ....   0.010
   Quad. conv. algorithm                .... NR
   COSX micro iterations for RIJONX calc.... off
 SOSCF                  CNVSOSCF        .... on
   Start iteration      SOSCFMaxIt      ....   150
   Startup grad/error   SOSCFStart      ....  0.003300
 Level Shifting         CNVShift        .... on
   Level shift para.    LevelShift      ....    0.2500
   Turn off err/grad.   ShiftErr        ....    0.0010
 Zerner damping         CNVZerner       .... off
 Static damping         CNVDamp         .... on
   Fraction old density DampFac         ....    0.7000
   Max. Damping (<1)    DampMax         ....    0.9800
   Min. Damping (>=0)   DampMin         ....    0.0000
   Turn off err/grad.   DampErr         ....    0.1000
 Fernandez-Rico         CNVRico         .... off

SCF Procedure:
 Maximum # iterations   MaxIter         ....   125
 SCF integral mode      SCFMode         .... Direct
   Integral package                     .... SHARK and LIBINT hybrid scheme
 Reset frequency        DirectResetFreq ....    20
 Integral Threshold     Thresh          ....  2.500e-11 Eh
 Primitive CutOff       TCut            ....  2.500e-12 Eh

Convergence Tolerance:
 Convergence Check Mode ConvCheckMode   .... Total+1el-Energy
 Convergence forced     ConvForced      .... 0
 Energy Change          TolE            ....  1.000e-08 Eh
 1-El. energy change                    ....  1.000e-05 Eh
 Orbital Gradient       TolG            ....  1.000e-05
 Orbital Rotation angle TolX            ....  1.000e-05
 DIIS Error             TolErr          ....  5.000e-07


Diagonalization of the overlap matrix:
Smallest eigenvalue                        ... 4.265e-03
Time for diagonalization                   ...    0.002 sec
Threshold for overlap eigenvalues          ... 1.000e-08
Number of eigenvalues below threshold      ... 0
Time for construction of square roots      ...    0.290 sec
Total time needed                          ...    0.304 sec

--------------------------------
INITIAL GUESS: MINIMAL BASIS EHT
--------------------------------
The minimal basis has 33 functions
EHT matrix was diagonalized
Basis set overlap was calculated now projecting the orbitals
Using GuessMode=FMatrix for the initial guess
C*T matrix was formed
Effective Fockian was calculated
Effective Fockian was diagonalized
Initial density was built
                      ------------------
                      INITIAL GUESS DONE
                      ------------------
-------------------
DFT GRID GENERATION
-------------------

General Integration Accuracy     IntAcc      ... 4.959
Radial Grid Type                 RadialGrid  ... OptM3 with GC (2021)
Angular Grid (max. ang.)         AngularGrid ... 6 (Lebedev-590)
Angular grid pruning method      GridPruning ... 4 (adaptive)
Weight generation scheme         WeightScheme... Becke
Basis function cutoff            BFCut       ... 1.0000e-11
Integration weight cutoff        WCut        ... 1.0000e-14
Angular grids for H and He will be reduced by one unit
Partially contracted basis set               ... off
Rotationally invariant grid construction     ... off

Total number of grid points                  ...   142123
Total number of batches                      ...     2227
Average number of points per batch           ...       63
Average number of grid points per atom       ...    10933
Time for grid setup =    2.825 sec

--------------------
COSX GRID GENERATION
--------------------

GRIDX 1
-------
General Integration Accuracy     IntAcc      ... 4.020
Radial Grid Type                 RadialGrid  ... OptM3 with GC (2021)
Angular Grid (max. ang.)         AngularGrid ... 2 (Lebedev-110)
Angular grid pruning method      GridPruning ... 4 (adaptive)
Weight generation scheme         WeightScheme... Becke
Basis function cutoff            BFCut       ... 1.0000e-11
Integration weight cutoff        WCut        ... 1.0000e-14
Angular grids for H and He will be reduced by one unit
Partially contracted basis set               ... on
Rotationally invariant grid construction     ... off

Total number of grid points                  ...    15300
Total number of batches                      ...      245
Average number of points per batch           ...       62
Average number of grid points per atom       ...     1177
UseSFitting                                  ... on

GRIDX 2
-------
General Integration Accuracy     IntAcc      ... 4.338
Radial Grid Type                 RadialGrid  ... OptM3 with GC (2021)
Angular Grid (max. ang.)         AngularGrid ... 3 (Lebedev-194)
Angular grid pruning method      GridPruning ... 4 (adaptive)
Weight generation scheme         WeightScheme... Becke
Basis function cutoff            BFCut       ... 1.0000e-11
Integration weight cutoff        WCut        ... 1.0000e-14
Angular grids for H and He will be reduced by one unit
Partially contracted basis set               ... on
Rotationally invariant grid construction     ... off

Total number of grid points                  ...    33500
Total number of batches                      ...      533
Average number of points per batch           ...       62
Average number of grid points per atom       ...     2577
UseSFitting                                  ... on

GRIDX 3
-------
General Integration Accuracy     IntAcc      ... 4.871
Radial Grid Type                 RadialGrid  ... OptM3 with GC (2021)
Angular Grid (max. ang.)         AngularGrid ... 4 (Lebedev-302)
Angular grid pruning method      GridPruning ... 4 (adaptive)
Weight generation scheme         WeightScheme... Becke
Basis function cutoff            BFCut       ... 1.0000e-11
Integration weight cutoff        WCut        ... 1.0000e-14
Angular grids for H and He will be reduced by one unit
Partially contracted basis set               ... on
Rotationally invariant grid construction     ... off

Total number of grid points                  ...    65975
Total number of batches                      ...     1038
Average number of points per batch           ...       63
Average number of grid points per atom       ...     5075
UseSFitting                                  ... on

Time for X-Grid setup             =    3.968 sec

--------------
SCF ITERATIONS
--------------
ITER       Energy         Delta-E        Max-DP      RMS-DP      [F,P]     Damp
               ***  Starting incremental Fock matrix formation  ***
  0   -231.2346015572   0.000000000000 0.19395180  0.00649726  0.5402082 0.7000
  1   -231.4979984012  -0.263396843962 0.09463048  0.00369027  0.2829275 0.7000
                               ***Turning on DIIS***
  2   -231.6297918844  -0.131793483220 0.03934751  0.00198279  0.1998965 0.7000
  3   -231.7210660428  -0.091274158435 0.02792143  0.00140284  0.1408925 0.7000
  4   -231.7863641059  -0.065298063053 0.05460051  0.00350201  0.0986979 0.0000
  5   -231.9420072866  -0.155643180686 0.00702192  0.00024020  0.0064603 0.0000
  6   -231.9421048398  -0.000097553244 0.00284823  0.00008381  0.0041324 0.0000
                      *** Initiating the SOSCF procedure ***
                           *** Shutting down DIIS ***
                      *** Re-Reading the Fockian *** 
                      *** Removing any level shift *** 
ITER      Energy       Delta-E        Grad      Rot      Max-DP    RMS-DP
  7   -231.94213962  -0.0000347753  0.000400  0.000400  0.001235  0.000054
               *** Restarting incremental Fock matrix formation ***
  8   -231.94215796  -0.0000183442  0.000167  0.000265  0.000500  0.000020
  9   -231.94215809  -0.0000001288  0.000197  0.000089  0.000243  0.000010
 10   -231.94215838  -0.0000002898  0.000028  0.000044  0.000077  0.000003
 11   -231.94215837   0.0000000049  0.000024  0.000013  0.000033  0.000002
                  ***Gradient check signals convergence***
              ***Rediagonalizing the Fockian in SOSCF/NRSCF***

               *****************************************************
               *                     SUCCESS                       *
               *           SCF CONVERGED AFTER  12 CYCLES          *
               *****************************************************

Old exchange energy                            =    -13.334278169 Eh
New exchange energy                            =    -13.334271614 Eh
Exchange energy change after final integration =      0.000006555 Eh
Total energy after final integration           =   -231.942151834 Eh
Final COS-X integration done in                =     1.548 sec

----------------
TOTAL SCF ENERGY
----------------

Total Energy       :         -231.94215183 Eh           -6311.46682 eV

Components:
Nuclear Repulsion  :          180.88611405 Eh            4922.16140 eV
Electronic Energy  :         -412.82826588 Eh          -11233.62822 eV
One Electron Energy:         -672.05099985 Eh          -18287.43742 eV
Two Electron Energy:          259.22273397 Eh            7053.80920 eV
Max COSX asymmetry :            0.00000142 Eh               0.00004 eV

Virial components:
Potential Energy   :         -461.97060042 Eh          -12570.85913 eV
Kinetic Energy     :          230.02844859 Eh            6259.39231 eV
Virial Ratio       :            2.00831942


DFT components:
N(Alpha)           :       20.000000891127 electrons
N(Beta)            :       20.000000891127 electrons
N(Total)           :       40.000001782255 electrons
E(X)               :      -17.712115388412 Eh       
E(C)               :       -1.721952878207 Eh       
E(XC)              :      -19.434068266620 Eh       
DFET-embed. en.    :        0.000000000000 Eh       

---------------
SCF CONVERGENCE
---------------

  Last Energy change         ...   -1.5802e-08  Tolerance :   1.0000e-08
  Last MAX-Density change    ...    1.3323e-15  Tolerance :   1.0000e-07
  Last RMS-Density change    ...    5.0465e-17  Tolerance :   5.0000e-09
  Last Orbital Gradient      ...    8.6912e-07  Tolerance :   1.0000e-05
  Last Orbital Rotation      ...    1.8929e-06  Tolerance :   1.0000e-05

             **** THE GBW FILE WAS UPDATED (pbeh-3c.gbw) ****
             **** DENSITY pbeh-3c.scfp WAS UPDATED ****
             **** ENERGY FILE WAS UPDATED (pbeh-3c.en.tmp) ****
             **** THE GBW FILE WAS UPDATED (pbeh-3c.gbw) ****
             **** DENSITY pbeh-3c.scfp WAS UPDATED ****
----------------
ORBITAL ENERGIES
----------------

  NO   OCC          E(Eh)            E(eV) 
   0   2.0000     -19.495233      -530.4923 
   1   2.0000     -10.494690      -285.5750 
   2   2.0000     -10.494372      -285.5664 
   3   2.0000     -10.436467      -283.9907 
   4   2.0000     -10.436462      -283.9906 
   5   2.0000      -1.163960       -31.6730 
   6   2.0000      -0.831519       -22.6268 
   7   2.0000      -0.829351       -22.5678 
   8   2.0000      -0.694819       -18.9070 
   9   2.0000      -0.657014       -17.8783 
  10   2.0000      -0.546913       -14.8823 
  11   2.0000      -0.532657       -14.4943 
  12   2.0000      -0.478817       -13.0293 
  13   2.0000      -0.474245       -12.9049 
  14   2.0000      -0.451415       -12.2836 
  15   2.0000      -0.445513       -12.1230 
  16   2.0000      -0.415250       -11.2995 
  17   2.0000      -0.403709       -10.9855 
  18   2.0000      -0.335938        -9.1413 
  19   2.0000      -0.319734        -8.7004 
  20   0.0000       0.146399         3.9837 
  21   0.0000       0.158126         4.3028 
  22   0.0000       0.161669         4.3992 
  23   0.0000       0.167381         4.5547 
  24   0.0000       0.180639         4.9154 
  25   0.0000       0.205067         5.5802 
  26   0.0000       0.211040         5.7427 
  27   0.0000       0.216008         5.8779 
  28   0.0000       0.218655         5.9499 
  29   0.0000       0.238551         6.4913 
  30   0.0000       0.247443         6.7333 
  31   0.0000       0.298767         8.1299 
  32   0.0000       0.381610        10.3841 
  33   0.0000       0.481796        13.1103 
  34   0.0000       0.499877        13.6023 
  35   0.0000       0.535713        14.5775 
  36   0.0000       0.543078        14.7779 
  37   0.0000       0.556586        15.1455 
  38   0.0000       0.577362        15.7108 
  39   0.0000       0.627634        17.0788 
  40   0.0000       0.630706        17.1624 
  41   0.0000       0.658748        17.9255 
  42   0.0000       0.685633        18.6570 
  43   0.0000       0.727960        19.8088 
  44   0.0000       0.827544        22.5186 
  45   0.0000       0.888412        24.1749 
  46   0.0000       0.963830        26.2272 
  47   0.0000       0.989990        26.9390 
  48   0.0000       1.017817        27.6962 
  49   0.0000       1.018577        27.7169 
  50   0.0000       1.028328        27.9822 
  51   0.0000       1.043917        28.4064 
  52   0.0000       1.055742        28.7282 
  53   0.0000       1.063980        28.9524 
  54   0.0000       1.090887        29.6845 
  55   0.0000       1.129300        30.7298 
  56   0.0000       1.170950        31.8632 
  57   0.0000       1.266055        34.4511 
  58   0.0000       1.337637        36.3989 
  59   0.0000       1.425209        38.7819 
  60   0.0000       1.496844        40.7312 
  61   0.0000       1.581974        43.0477 
  62   0.0000       1.665196        45.3123 
  63   0.0000       1.755881        47.7800 
  64   0.0000       1.822062        49.5808 
  65   0.0000       1.850671        50.3593 
  66   0.0000       1.898575        51.6629 
  67   0.0000       1.927603        52.4527 
  68   0.0000       1.973115        53.6912 
  69   0.0000       2.038000        55.4568 
  70   0.0000       2.100479        57.1569 
  71   0.0000       2.111727        57.4630 
  72   0.0000       2.194408        59.7129 
  73   0.0000       2.219936        60.4075 
  74   0.0000       2.224504        60.5318 
  75   0.0000       2.286761        62.2259 
  76   0.0000       2.346570        63.8534 
  77   0.0000       2.400334        65.3164 
  78   0.0000       2.452100        66.7250 
  79   0.0000       2.504964        68.1635 
  80   0.0000       2.514105        68.4123 
  81   0.0000       2.701669        73.5161 
  82   0.0000       2.706051        73.6354 
  83   0.0000       2.845115        77.4195 
  84   0.0000       2.934179        79.8431 
  85   0.0000       3.002914        81.7134 
  86   0.0000      13.528901       368.1401 
  87   0.0000      13.746524       374.0619 
  88   0.0000      13.982304       380.4778 
  89   0.0000      14.089031       383.3820 
  90   0.0000      25.640995       697.7269 

                    ********************************
                    * MULLIKEN POPULATION ANALYSIS *
                    ********************************

-----------------------
MULLIKEN ATOMIC CHARGES
-----------------------
   0 C :    0.015586
   1 C :    0.015616
   2 O :   -0.461013
   3 H :    0.209807
   4 H :    0.209794
   5 C :   -0.667896
   6 H :    0.231678
   7 H :    0.213444
   8 H :    0.227873
   9 C :   -0.667890
  10 H :    0.231680
  11 H :    0.213448
  12 H :    0.227872
Sum of atomic charges:    0.0000000

--------------------------------
MULLIKEN REDUCED ORBITAL CHARGES
--------------------------------
  0 C s       :     3.221105  s :     3.221105
      pz      :     1.031919  p :     2.690710
      px      :     0.889756
      py      :     0.769035
      dz2     :     0.014294  d :     0.072599
      dxz     :     0.015770
      dyz     :     0.011124
      dx2y2   :     0.016196
      dxy     :     0.015215
  1 C s       :     3.221092  s :     3.221092
      pz      :     1.031842  p :     2.690683
      px      :     0.890503
      py      :     0.768338
      dz2     :     0.014285  d :     0.072608
      dxz     :     0.015709
      dyz     :     0.011204
      dx2y2   :     0.016249
      dxy     :     0.015160
  2 O s       :     3.868304  s :     3.868304
      pz      :     1.873372  p :     4.556168
      px      :     1.348135
      py      :     1.334661
      dz2     :     0.004824  d :     0.036541
      dxz     :     0.001452
      dyz     :     0.005699
      dx2y2   :     0.009692
      dxy     :     0.014875
  3 H s       :     0.790193  s :     0.790193
  4 H s       :     0.790206  s :     0.790206
  5 C s       :     3.394076  s :     3.394076
      pz      :     1.017832  p :     3.237904
      px      :     1.098194
      py      :     1.121878
      dz2     :     0.009578  d :     0.035917
      dxz     :     0.009244
      dyz     :     0.002525
      dx2y2   :     0.006855
      dxy     :     0.007715
  6 H s       :     0.768322  s :     0.768322
  7 H s       :     0.786556  s :     0.786556
  8 H s       :     0.772127  s :     0.772127
  9 C s       :     3.394074  s :     3.394074
      pz      :     1.018000  p :     3.237899
      px      :     1.097989
      py      :     1.121910
      dz2     :     0.009576  d :     0.035917
      dxz     :     0.009268
      dyz     :     0.002502
      dx2y2   :     0.006790
      dxy     :     0.007781
 10 H s       :     0.768320  s :     0.768320
 11 H s       :     0.786552  s :     0.786552
 12 H s       :     0.772128  s :     0.772128


                     *******************************
                     * LOEWDIN POPULATION ANALYSIS *
                     *******************************

----------------------
LOEWDIN ATOMIC CHARGES
----------------------
   0 C :   -0.023063
   1 C :   -0.023067
   2 O :   -0.278647
   3 H :    0.118481
   4 H :    0.118474
   5 C :   -0.364043
   6 H :    0.137438
   7 H :    0.133283
   8 H :    0.137228
   9 C :   -0.364039
  10 H :    0.137439
  11 H :    0.133286
  12 H :    0.137230

-------------------------------
LOEWDIN REDUCED ORBITAL CHARGES
-------------------------------
  0 C s       :     2.879662  s :     2.879662
      pz      :     1.088881  p :     2.987607
      px      :     1.029866
      py      :     0.868859
      dz2     :     0.028562  d :     0.155794
      dxz     :     0.035013
      dyz     :     0.023593
      dx2y2   :     0.034524
      dxy     :     0.034101
  1 C s       :     2.879651  s :     2.879651
      pz      :     1.088853  p :     2.987602
      px      :     1.030396
      py      :     0.868353
      dz2     :     0.028556  d :     0.155814
      dxz     :     0.034883
      dyz     :     0.023752
      dx2y2   :     0.034661
      dxy     :     0.033962
  2 O s       :     3.557041  s :     3.557041
      pz      :     1.868607  p :     4.651943
      px      :     1.387790
      py      :     1.395546
      dz2     :     0.009290  d :     0.069662
      dxz     :     0.004382
      dyz     :     0.009131
      dx2y2   :     0.022653
      dxy     :     0.024206
  3 H s       :     0.881519  s :     0.881519
  4 H s       :     0.881526  s :     0.881526
  5 C s       :     2.957498  s :     2.957498
      pz      :     1.095812  p :     3.338493
      px      :     1.118457
      py      :     1.124224
      dz2     :     0.018783  d :     0.068052
      dxz     :     0.018795
      dyz     :     0.005362
      dx2y2   :     0.011874
      dxy     :     0.013237
  6 H s       :     0.862562  s :     0.862562
  7 H s       :     0.866717  s :     0.866717
  8 H s       :     0.862772  s :     0.862772
  9 C s       :     2.957494  s :     2.957494
      pz      :     1.095879  p :     3.338492
      px      :     1.118374
      py      :     1.124240
      dz2     :     0.018775  d :     0.068054
      dxz     :     0.018838
      dyz     :     0.005320
      dx2y2   :     0.011764
      dxy     :     0.013357
 10 H s       :     0.862561  s :     0.862561
 11 H s       :     0.866714  s :     0.866714
 12 H s       :     0.862770  s :     0.862770


                      *****************************
                      * MAYER POPULATION ANALYSIS *
                      *****************************

  NA   - Mulliken gross atomic population
  ZA   - Total nuclear charge
  QA   - Mulliken gross atomic charge
  VA   - Mayer's total valence
  BVA  - Mayer's bonded valence
  FA   - Mayer's free valence

  ATOM       NA         ZA         QA         VA         BVA        FA
  0 C      5.9844     6.0000     0.0156     3.7389     3.7389     0.0000
  1 C      5.9844     6.0000     0.0156     3.7390     3.7390    -0.0000
  2 O      8.4610     8.0000    -0.4610     1.9676     1.9676    -0.0000
  3 H      0.7902     1.0000     0.2098     0.9116     0.9116     0.0000
  4 H      0.7902     1.0000     0.2098     0.9116     0.9116    -0.0000
  5 C      6.6679     6.0000    -0.6679     3.7336     3.7336    -0.0000
  6 H      0.7683     1.0000     0.2317     0.9065     0.9065    -0.0000
  7 H      0.7866     1.0000     0.2134     0.9119     0.9119    -0.0000
  8 H      0.7721     1.0000     0.2279     0.9144     0.9144     0.0000
  9 C      6.6679     6.0000    -0.6679     3.7336     3.7336     0.0000
 10 H      0.7683     1.0000     0.2317     0.9065     0.9065     0.0000
 11 H      0.7866     1.0000     0.2134     0.9119     0.9119     0.0000
 12 H      0.7721     1.0000     0.2279     0.9144     0.9144     0.0000

  Mayer bond orders larger than 0.100000
B(  0-C ,  1-C ) :   0.9528 B(  0-C ,  2-O ) :   0.9433 B(  0-C ,  3-H ) :   0.9054 
B(  0-C ,  9-C ) :   0.9762 B(  1-C ,  2-O ) :   0.9434 B(  1-C ,  4-H ) :   0.9054 
B(  1-C ,  5-C ) :   0.9762 B(  5-C ,  6-H ) :   0.9204 B(  5-C ,  7-H ) :   0.9179 
B(  5-C ,  8-H ) :   0.9252 B(  9-C , 10-H ) :   0.9204 B(  9-C , 11-H ) :   0.9179 
B(  9-C , 12-H ) :   0.9252 

-------
TIMINGS
-------

Total SCF time: 0 days 0 hours 0 min 58 sec 

Total time                  ....      58.789 sec
Sum of individual times     ....      51.849 sec  ( 88.2%)

Fock matrix formation       ....      40.793 sec  ( 69.4%)
  Split-RI-J                ....       4.836 sec  ( 11.9% of F)
  Chain of spheres X        ....      12.541 sec  ( 30.7% of F)
  XC integration            ....      12.122 sec  ( 29.7% of F)
    Basis function eval.    ....       1.856 sec  ( 15.3% of XC)
    Density eval.           ....       1.071 sec  (  8.8% of XC)
    XC-Functional eval.     ....       1.159 sec  (  9.6% of XC)
    XC-Potential eval.      ....       0.660 sec  (  5.4% of XC)
Diagonalization             ....       0.564 sec  (  1.0%)
Density matrix formation    ....       0.051 sec  (  0.1%)
Population analysis         ....       0.477 sec  (  0.8%)
Initial guess               ....       0.006 sec  (  0.0%)
Orbital Transformation      ....       0.000 sec  (  0.0%)
Orbital Orthonormalization  ....       0.000 sec  (  0.0%)
DIIS solution               ....       2.555 sec  (  4.3%)
SOSCF solution              ....       0.611 sec  (  1.0%)
Grid generation             ....       6.792 sec  ( 11.6%)

Maximum memory used throughout the entire SCF-calculation: 50.3 MB


-------------------------------------------------------------------------------
                          DFT DISPERSION CORRECTION                            
                                                                               
                              DFTD3 V3.1  Rev 1                                
                          USING Becke-Johnson damping                          
-------------------------------------------------------------------------------
The PBEh-3c composite method is recognized
Using three-body term ABC
Active option DFTDOPT                   ...         4   

molecular C6(AA) [au] = 1174.989334 


            DFT-D V3
 parameters
 s6 scaling factor         :     1.0000 
 a1 scaling factor         :     0.4860 
 s8 scaling factor         :     0.0000 
 a2 scaling factor         :     4.5000 
 Damping factor alpha9(ATM):    16.0000 
 ad hoc parameters k1-k3   :    16.0000     1.3333    -4.0000 

 Edisp/kcal,au: -2.922897015426  -0.004657932389 
 E6   /kcal   :  -2.929281153 
 E8   /kcal   :  -0.000000000 
 E6(ABC)      :   0.006384137 
 % E8         :   0.000000000 
 % E6(ABC)    :  -0.218418135 

-------------------------   ----------------
Dispersion correction           -0.004657932
-------------------------   ----------------

------------------   -----------------
gCP correction             0.022547480
------------------   -----------------

-------------------------   --------------------
FINAL SINGLE POINT ENERGY      -231.924262286825
-------------------------   --------------------


                            ***************************************
                            *     ORCA property calculations      *
                            ***************************************

                                    ---------------------
                                    Active property flags
                                    ---------------------
   (+) Dipole Moment


------------------------------------------------------------------------------
                       ORCA ELECTRIC PROPERTIES CALCULATION
------------------------------------------------------------------------------

Dipole Moment Calculation                       ... on
Quadrupole Moment Calculation                   ... off
Polarizability Calculation                      ... off
GBWName                                         ... pbeh-3c.gbw
Electron density                                ... pbeh-3c.scfp
The origin for moment calculation is the CENTER OF MASS  = ( 0.001023,  0.559042  0.000747)

-------------
DIPOLE MOMENT
-------------
                                X             Y             Z
Electronic contribution:      0.00493       2.71542       0.00363
Nuclear contribution   :     -0.00649      -3.54574      -0.00473
                        -----------------------------------------
Total Dipole Moment    :     -0.00155      -0.83031      -0.00111
                        -----------------------------------------
Magnitude (a.u.)       :      0.83032
Magnitude (Debye)      :      2.11049



--------------------
Rotational spectrum 
--------------------
 
Rotational constants in cm-1:     0.402733     0.113123     0.101290 
Rotational constants in MHz : 12073.617379  3391.329127  3036.593068 

 Dipole components along the rotational axes: 
x,y,z [a.u.] :     0.000040     0.830315     0.000000 
x,y,z [Debye]:     0.000102     2.110494     0.000001 

 

Timings for individual modules:

Sum of individual times         ...       63.066 sec (=   1.051 min)
GTO integral calculation        ...        3.334 sec (=   0.056 min)   5.3 %
SCF iterations                  ...       59.732 sec (=   0.996 min)  94.7 %
                             ****ORCA TERMINATED NORMALLY****
TOTAL RUN TIME: 0 days 0 hours 1 minutes 10 seconds 149 msec
