
                                 *****************
                                 * O   R   C   A *
                                 *****************

                                            #,                                       
                                            ###                                      
                                            ####                                     
                                            #####                                    
                                            ######                                   
                                           ########,                                 
                                     ,,################,,,,,                         
                               ,,#################################,,                 
                          ,,##########################################,,             
                       ,#########################################, ''#####,          
                    ,#############################################,,   '####,        
                  ,##################################################,,,,####,       
                ,###########''''           ''''###############################       
              ,#####''   ,,,,##########,,,,          '''####'''          '####       
            ,##' ,,,,###########################,,,                        '##       
           ' ,,###''''                  '''############,,,                           
         ,,##''                                '''############,,,,        ,,,,,,###''
      ,#''                                            '''#######################'''  
     '                                                          ''''####''''         
             ,#######,   #######,   ,#######,      ##                                
            ,#'     '#,  ##    ##  ,#'     '#,    #''#        ######   ,####,        
            ##       ##  ##   ,#'  ##            #'  '#       #        #'  '#        
            ##       ##  #######   ##           ,######,      #####,   #    #        
            '#,     ,#'  ##    ##  '#,     ,#' ,#      #,         ##   #,  ,#        
             '#######'   ##     ##  '#######'  #'      '#     #####' # '####'        



                  #######################################################
                  #                        -***-                        #
                  #          Department of theory and spectroscopy      #
                  #    Directorship and core code : Frank Neese         #
                  #        Max Planck Institute fuer Kohlenforschung    #
                  #                Kaiser Wilhelm Platz 1               #
                  #                 D-45470 Muelheim/Ruhr               #
                  #                      Germany                        #
                  #                                                     #
                  #                  All rights reserved                #
                  #                        -***-                        #
                  #######################################################


                         Program Version 5.0.3 -  RELEASE  -


 With contributions from (in alphabetic order):
   Daniel Aravena         : Magnetic Suceptibility
   Michael Atanasov       : Ab Initio Ligand Field Theory (pilot matlab implementation)
   Alexander A. Auer      : GIAO ZORA, VPT2 properties, NMR spectrum
   Ute Becker             : Parallelization
   Giovanni Bistoni       : ED, misc. LED, open-shell LED, HFLD
   Martin Brehm           : Molecular dynamics
   Dmytro Bykov           : SCF Hessian
   Vijay G. Chilkuri      : MRCI spin determinant printing, contributions to CSF-ICE
   Dipayan Datta          : RHF DLPNO-CCSD density
   Achintya Kumar Dutta   : EOM-CC, STEOM-CC
   Dmitry Ganyushin       : Spin-Orbit,Spin-Spin,Magnetic field MRCI
   Miquel Garcia          : C-PCM and meta-GGA Hessian, CC/C-PCM, Gaussian charge scheme
   Yang Guo               : DLPNO-NEVPT2, F12-NEVPT2, CIM, IAO-localization
   Andreas Hansen         : Spin unrestricted coupled pair/coupled cluster methods
   Benjamin Helmich-Paris : MC-RPA, TRAH-SCF, COSX integrals
   Lee Huntington         : MR-EOM, pCC
   Robert Izsak           : Overlap fitted RIJCOSX, COSX-SCS-MP3, EOM
   Marcus Kettner         : VPT2
   Christian Kollmar      : KDIIS, OOCD, Brueckner-CCSD(T), CCSD density, CASPT2, CASPT2-K
   Simone Kossmann        : Meta GGA functionals, TD-DFT gradient, OOMP2, MP2 Hessian
   Martin Krupicka        : Initial AUTO-CI
   Lucas Lang             : DCDCAS
   Marvin Lechner         : AUTO-CI (C++ implementation), FIC-MRCC
   Dagmar Lenk            : GEPOL surface, SMD
   Dimitrios Liakos       : Extrapolation schemes; Compound Job, initial MDCI parallelization
   Dimitrios Manganas     : Further ROCIS development; embedding schemes
   Dimitrios Pantazis     : SARC Basis sets
   Anastasios Papadopoulos: AUTO-CI, single reference methods and gradients
   Taras Petrenko         : DFT Hessian,TD-DFT gradient, ASA, ECA, R-Raman, ABS, FL, XAS/XES, NRVS
   Peter Pinski           : DLPNO-MP2, DLPNO-MP2 Gradient
   Christoph Reimann      : Effective Core Potentials
   Marius Retegan         : Local ZFS, SOC
   Christoph Riplinger    : Optimizer, TS searches, QM/MM, DLPNO-CCSD(T), (RO)-DLPNO pert. Triples
   Tobias Risthaus        : Range-separated hybrids, TD-DFT gradient, RPA, STAB
   Michael Roemelt        : Original ROCIS implementation
   Masaaki Saitow         : Open-shell DLPNO-CCSD energy and density
   Barbara Sandhoefer     : DKH picture change effects
   Avijit Sen             : IP-ROCIS
   Kantharuban Sivalingam : CASSCF convergence, NEVPT2, FIC-MRCI
   Bernardo de Souza      : ESD, SOC TD-DFT
   Georgi Stoychev        : AutoAux, RI-MP2 NMR, DLPNO-MP2 response
   Willem Van den Heuvel  : Paramagnetic NMR
   Boris Wezisla          : Elementary symmetry handling
   Frank Wennmohs         : Technical directorship


 We gratefully acknowledge several colleagues who have allowed us to
 interface, adapt or use parts of their codes:
   Stefan Grimme, W. Hujo, H. Kruse, P. Pracht,  : VdW corrections, initial TS optimization,
                  C. Bannwarth, S. Ehlert          DFT functionals, gCP, sTDA/sTD-DF
   Ed Valeev, F. Pavosevic, A. Kumar             : LibInt (2-el integral package), F12 methods
   Garnet Chan, S. Sharma, J. Yang, R. Olivares  : DMRG
   Ulf Ekstrom                                   : XCFun DFT Library
   Mihaly Kallay                                 : mrcc  (arbitrary order and MRCC methods)
   Jiri Pittner, Ondrej Demel                    : Mk-CCSD
   Frank Weinhold                                : gennbo (NPA and NBO analysis)
   Christopher J. Cramer and Donald G. Truhlar   : smd solvation model
   Lars Goerigk                                  : TD-DFT with DH, B97 family of functionals
   V. Asgeirsson, H. Jonsson                     : NEB implementation
   FAccTs GmbH                                   : IRC, NEB, NEB-TS, DLPNO-Multilevel, CI-OPT
                                                   MM, QMMM, 2- and 3-layer-ONIOM, Crystal-QMMM,
                                                   LR-CPCM, SF, NACMEs, symmetry and pop. for TD-DFT,
                                                   nearIR, NL-DFT gradient (VV10), updates on ESD,
                                                   ML-optimized integration grids
   S Lehtola, MJT Oliveira, MAL Marques          : LibXC Library
   Liviu Ungur et al                             : ANISO software


 Your calculation uses the libint2 library for the computation of 2-el integrals
 For citations please refer to: http://libint.valeyev.net

 Your ORCA version has been built with support for libXC version: 5.1.0
 For citations please refer to: https://tddft.org/programs/libxc/

 This ORCA versions uses:
   CBLAS   interface :  Fast vector & matrix operations
   LAPACKE interface :  Fast linear algebra routines
   SCALAPACK package :  Parallel linear algebra routines
   Shared memory     :  Shared parallel matrices
   BLAS/LAPACK       :  OpenBLAS 0.3.15  USE64BITINT DYNAMIC_ARCH NO_AFFINITY Haswell SINGLE_THREADED
        Core in use  :  Haswell
   Copyright (c) 2011-2014, The OpenBLAS Project




***************************************
The coordinates will be read from file: B62.xyz
***************************************


Your calculation utilizes the geometrical counterpoise correction gCP
Please cite in your paper:
H.Kruse, S. Grimme J.Chem.Phys., 136, (2012), 154101 
   

Your calculation utilizes the atom-pairwise dispersion correction
with the Becke-Johnson damping scheme (D3BJ)
Cite in your paper:
S.Grimme, S.Ehrlich, L.Goerigk, J Comput Chem, (2011), 32, 1456–1465 
S.Grimme, J.Antony, S.Ehrlich and H.Krieg, J.Chem.Phys., 132, (2010), 154104 
   

Your calculation employs the composite approach PBEh-3c.
Please cite in your paper:
S. Grimme, J. G. Brandenburg, C. Bannwarth, A. Hansen J.Chem.Phys., 143, (2015), 054107 
   

================================================================================

----- Orbital basis set information -----
Your calculation utilizes the basis: def2-mSVP

----- AuxJ basis set information -----
Your calculation utilizes the auxiliary basis: def2/J
   F. Weigend, Phys. Chem. Chem. Phys. 8, 1057 (2006).

================================================================================
                                        WARNINGS
                       Please study these warnings very carefully!
================================================================================


INFO   : the flag for use of the SHARK integral package has been found!

================================================================================
                                       INPUT FILE
================================================================================
NAME = pbeh-3c.inp
|  1> ! PBEh-3c def2/J TightSCF DefGrid3
|  2> 
|  3> %maxcore 60000
|  4> 
|  5> %pal
|  6> nprocs 4
|  7> end
|  8> 
|  9> *xyzfile 0 1 B62.xyz
| 10> 
| 11>                          ****END OF INPUT****
================================================================================

                       ****************************
                       * Single Point Calculation *
                       ****************************

---------------------------------
CARTESIAN COORDINATES (ANGSTROEM)
---------------------------------
  C     -1.386620   -0.069820    0.488134
  H     -1.543127    0.660287    1.282218
  O     -2.689541   -0.408677    0.021739
  C     -0.512729    0.531521   -0.606158
  H     -0.328990   -0.219569   -1.381057
  H     -1.079255    1.332365   -1.083365
  C      0.822127    1.084556   -0.098897
  H      0.633223    1.875529    0.633135
  H      1.357140    1.540532   -0.933359
  H     -2.585023   -1.047990   -0.688206
  H     -0.905181   -0.943444    0.940155
  C      1.737082    0.046753    0.546114
  H      2.678332    0.517613    0.824711
  H      1.290469   -0.351560    1.461646
  O      2.090532   -1.010941   -0.342913
  H      1.315328   -1.564869   -0.461645

----------------------------
CARTESIAN COORDINATES (A.U.)
----------------------------
  NO LB      ZA    FRAG     MASS         X           Y           Z
   0 C     6.0000    0    12.011   -2.620332   -0.131941    0.922440
   1 H     1.0000    0     1.008   -2.916087    1.247762    2.423041
   2 O     8.0000    0    15.999   -5.082496   -0.772288    0.041081
   3 C     6.0000    0    12.011   -0.968917    1.004429   -1.145473
   4 H     1.0000    0     1.008   -0.621701   -0.414925   -2.609820
   5 H     1.0000    0     1.008   -2.039496    2.517805   -2.047263
   6 C     6.0000    0    12.011    1.553595    2.049514   -0.186888
   7 H     1.0000    0     1.008    1.196618    3.544236    1.196452
   8 H     1.0000    0     1.008    2.564623    2.911184   -1.763793
   9 H     1.0000    0     1.008   -4.884986   -1.980414   -1.300521
  10 H     1.0000    0     1.008   -1.710544   -1.782851    1.776635
  11 C     6.0000    0    12.011    3.282609    0.088350    1.032006
  12 H     1.0000    0     1.008    5.061314    0.978147    1.558478
  13 H     1.0000    0     1.008    2.438633   -0.664352    2.762111
  14 O     8.0000    0    15.999    3.950533   -1.910402   -0.648012
  15 H     1.0000    0     1.008    2.485610   -2.957174   -0.872383

--------------------------------
INTERNAL COORDINATES (ANGSTROEM)
--------------------------------
 C      0   0   0     0.000000000000     0.00000000     0.00000000
 H      1   0   0     1.090009207096     0.00000000     0.00000000
 O      1   2   0     1.424763662758   105.45481787     0.00000000
 C      1   2   3     1.524064125759   109.94523619   121.54922958
 H      4   1   2     1.094698437206   109.49825827   177.87420591
 H      4   1   2     1.090884660201   107.81664377   293.16023658
 C      4   1   2     1.531339927672   113.85827203    54.76062830
 H      7   4   1     1.094163542149   109.40215202   299.78513206
 H      7   4   1     1.091091129186   108.96650917   182.98445038
 H      3   1   2     0.961075973749   107.49181749   179.48425946
 H      1   2   3     1.095137155126   107.26308824   242.39581695
 C      7   4   1     1.526504801484   114.64000211    61.50501135
 H     12   7   4     1.088704271374   109.40792933   176.91344794
 H     12   7   4     1.093761976283   110.88700934   294.99446974
 O     12   7   4     1.426188103605   112.91375755    59.84138594
 H     15  12   7     0.960143092786   107.74921461   287.42164165

---------------------------
INTERNAL COORDINATES (A.U.)
---------------------------
 C      0   0   0     0.000000000000     0.00000000     0.00000000
 H      1   0   0     2.059818884864     0.00000000     0.00000000
 O      1   2   0     2.692413128175   105.45481787     0.00000000
 C      1   2   3     2.880063808219   109.94523619   121.54922958
 H      4   1   2     2.068680245552   109.49825827   177.87420591
 H      4   1   2     2.061473251475   107.81664377   293.16023658
 C      4   1   2     2.893813081239   113.85827203    54.76062830
 H      7   4   1     2.067669440384   109.40215202   299.78513206
 H      7   4   1     2.061863421313   108.96650917   182.98445038
 H      3   1   2     1.816170384278   107.49181749   179.48425946
 H      1   2   3     2.069509302270   107.26308824   242.39581695
 C      7   4   1     2.884676016921   114.64000211    61.50501135
 H     12   7   4     2.057352913728   109.40792933   176.91344794
 H     12   7   4     2.066910590871   110.88700934   294.99446974
 O     12   7   4     2.695104931270   112.91375755    59.84138594
 H     15  12   7     1.814407494741   107.74921461   287.42164165

---------------------
BASIS SET INFORMATION
---------------------
There are 3 groups of distinct atoms

 Group   1 Type C   : 8s4p1d contracted to 4s2p1d pattern {5111/31/1}
 Group   2 Type H   : 4s contracted to 2s pattern {31}
 Group   3 Type O   : 8s4p1d contracted to 4s2p1d pattern {5111/31/1}

Atom   0C    basis set group =>   1
Atom   1H    basis set group =>   2
Atom   2O    basis set group =>   3
Atom   3C    basis set group =>   1
Atom   4H    basis set group =>   2
Atom   5H    basis set group =>   2
Atom   6C    basis set group =>   1
Atom   7H    basis set group =>   2
Atom   8H    basis set group =>   2
Atom   9H    basis set group =>   2
Atom  10H    basis set group =>   2
Atom  11C    basis set group =>   1
Atom  12H    basis set group =>   2
Atom  13H    basis set group =>   2
Atom  14O    basis set group =>   3
Atom  15H    basis set group =>   2
---------------------------------
AUXILIARY/J BASIS SET INFORMATION
---------------------------------
There are 3 groups of distinct atoms

 Group   1 Type C   : 12s5p4d2f1g contracted to 6s4p3d1f1g pattern {711111/2111/211/2/1}
 Group   2 Type H   : 5s2p1d contracted to 3s1p1d pattern {311/2/1}
 Group   3 Type O   : 12s5p4d2f1g contracted to 6s4p3d1f1g pattern {711111/2111/211/2/1}

Atom   0C    basis set group =>   1
Atom   1H    basis set group =>   2
Atom   2O    basis set group =>   3
Atom   3C    basis set group =>   1
Atom   4H    basis set group =>   2
Atom   5H    basis set group =>   2
Atom   6C    basis set group =>   1
Atom   7H    basis set group =>   2
Atom   8H    basis set group =>   2
Atom   9H    basis set group =>   2
Atom  10H    basis set group =>   2
Atom  11C    basis set group =>   1
Atom  12H    basis set group =>   2
Atom  13H    basis set group =>   2
Atom  14O    basis set group =>   3
Atom  15H    basis set group =>   2


           ************************************************************
           *        Program running with 4 parallel MPI-processes     *
           *              working on a common directory               *
           ************************************************************
------------------------------------------------------------------------------
                           ORCA GTO INTEGRAL CALCULATION
                           -- RI-GTO INTEGRALS CHOSEN --
------------------------------------------------------------------------------
------------------------------------------------------------------------------
                   ___                                                        
                  /   \      - P O W E R E D   B Y -                         
                 /     \                                                     
                 |  |  |   _    _      __       _____    __    __             
                 |  |  |  | |  | |    /  \     |  _  \  |  |  /  |          
                  \  \/   | |  | |   /    \    | | | |  |  | /  /          
                 / \  \   | |__| |  /  /\  \   | |_| |  |  |/  /          
                |  |  |   |  __  | /  /__\  \  |    /   |      \           
                |  |  |   | |  | | |   __   |  |    \   |  |\   \          
                \     /   | |  | | |  |  |  |  | |\  \  |  | \   \       
                 \___/    |_|  |_| |__|  |__|  |_| \__\ |__|  \__/        
                                                                              
                      - O R C A' S   B I G   F R I E N D -                    
                                      &                                       
                       - I N T E G R A L  F E E D E R -                       
                                                                              
 v1 FN, 2020, v2 2021                                                         
------------------------------------------------------------------------------


Reading SHARK input file pbeh-3c.SHARKINP.tmp ... ok
----------------------
SHARK INTEGRAL PACKAGE
----------------------

Number of atoms                             ...     16
Number of basis functions                   ...    110
Number of shells                            ...     62
Maximum angular momentum                    ...      2
Integral batch strategy                     ... SHARK/LIBINT Hybrid
RI-J (if used) integral strategy            ... SPLIT-RIJ (Revised 2003 algorithm where possible)
Printlevel                                  ...      1
Contraction scheme used                     ... SEGMENTED contraction
Coulomb Range Separation                    ... NOT USED
Exchange Range Separation                   ... NOT USED
Finite Nucleus Model                        ... NOT USED
Auxiliary Coulomb fitting basis             ... AVAILABLE
   # of basis functions in Aux-J            ...    404
   # of shells in Aux-J                     ...    140
   Maximum angular momentum in Aux-J        ...      4
Auxiliary J/K fitting basis                 ... NOT available
Auxiliary Correlation fitting basis         ... NOT available
Auxiliary 'external' fitting basis          ... NOT available
Integral threshold                          ...     2.500000e-11
Primitive cut-off                           ...     2.500000e-12
Primitive pair pre-selection threshold      ...     2.500000e-12

Calculating pre-screening integrals         ... done (  0.1 sec) Dimension = 62
Organizing shell pair data                  ... done (  0.2 sec)
Shell pair information
Total number of shell pairs                 ...      1953
Shell pairs after pre-screening             ...      1810
Total number of primitive shell pairs       ...      7129
Primitive shell pairs kept                  ...      4845
          la=0 lb=0:    890 shell pairs
          la=1 lb=0:    509 shell pairs
          la=1 lb=1:     77 shell pairs
          la=2 lb=0:    244 shell pairs
          la=2 lb=1:     69 shell pairs
          la=2 lb=2:     21 shell pairs

Calculating one electron integrals          ... done (  0.0 sec)
Calculating RI/J V-Matrix + Cholesky decomp.... done (  0.6 sec)
Calculating Nuclear repulsion               ... done (  0.1 sec) ENN=    253.562853205622 Eh

SHARK setup successfully completed in   1.9 seconds

Maximum memory used throughout the entire GTOINT-calculation: 10.5 MB


           ************************************************************
           *        Program running with 4 parallel MPI-processes     *
           *              working on a common directory               *
           ************************************************************
-------------------------------------------------------------------------------
                                 ORCA SCF
-------------------------------------------------------------------------------

------------
SCF SETTINGS
------------
Hamiltonian:
 Density Functional     Method          .... DFT(GTOs)
 Exchange Functional    Exchange        .... PBE
   PBE kappa parameter   XKappa         ....  1.024500
   PBE mue parameter    XMuePBE         ....  0.123457
 Correlation Functional Correlation     .... PBE
   PBE beta parameter  CBetaPBE         ....  0.030000
 LDA part of GGA corr.  LDAOpt          .... PW91-LDA
 Gradients option       PostSCFGGA      .... off
 Hybrid DFT is turned on
   Fraction HF Exchange ScalHFX         ....  0.420000
   Scaling of DF-GGA-X  ScalDFX         ....  0.580000
   Scaling of DF-GGA-C  ScalDFC         ....  1.000000
   Scaling of DF-LDA-C  ScalLDAC        ....  1.000000
   Perturbative correction              ....  0.000000
   Density functional embedding theory  .... OFF
 RI-approximation to the Coulomb term is turned on
   Number of AuxJ basis functions       .... 404
   RIJ-ON(X) (HFX calculated with O(N)) .... on
   Number of AuxJ basis functions       .... 404
   RIJ-COSX (HFX calculated with COS-X)).... on


General Settings:
 Integral files         IntName         .... pbeh-3c
 Hartree-Fock type      HFTyp           .... RHF
 Total Charge           Charge          ....    0
 Multiplicity           Mult            ....    1
 Number of Electrons    NEL             ....   50
 Basis Dimension        Dim             ....  110
 Nuclear Repulsion      ENuc            ....    253.5628532056 Eh

Convergence Acceleration:
 DIIS                   CNVDIIS         .... on
   Start iteration      DIISMaxIt       ....    12
   Startup error        DIISStart       ....  0.200000
   # of expansion vecs  DIISMaxEq       ....     5
   Bias factor          DIISBfac        ....   1.050
   Max. coefficient     DIISMaxC        ....  10.000
 Trust-Rad. Augm. Hess. CNVTRAH         .... auto
   Auto Start mean grad. ratio tolernc. ....  1.125000
   Auto Start start iteration           ....    20
   Auto Start num. interpolation iter.  ....    10
   Max. Number of Micro iterations      ....    16
   Max. Number of Macro iterations      .... Maxiter - #DIIS iter
   Number of Davidson start vectors     ....     2
   Converg. threshold I  (grad. norm)   ....   1.000e-05
   Converg. threshold II (energy diff.) ....   1.000e-08
   Grad. Scal. Fac. for Micro threshold ....   0.100
   Minimum threshold for Micro iter.    ....   0.010
   NR start threshold (gradient norm)   ....   0.001
   Initial trust radius                 ....   0.400
   Minimum AH scaling param. (alpha)    ....   1.000
   Maximum AH scaling param. (alpha)    .... 1000.000
   Orbital update algorithm             .... Taylor
   White noise on init. David. guess    .... on
   Maximum white noise                  ....   0.010
   Quad. conv. algorithm                .... NR
   COSX micro iterations for RIJONX calc.... off
 SOSCF                  CNVSOSCF        .... on
   Start iteration      SOSCFMaxIt      ....   150
   Startup grad/error   SOSCFStart      ....  0.003300
 Level Shifting         CNVShift        .... on
   Level shift para.    LevelShift      ....    0.2500
   Turn off err/grad.   ShiftErr        ....    0.0010
 Zerner damping         CNVZerner       .... off
 Static damping         CNVDamp         .... on
   Fraction old density DampFac         ....    0.7000
   Max. Damping (<1)    DampMax         ....    0.9800
   Min. Damping (>=0)   DampMin         ....    0.0000
   Turn off err/grad.   DampErr         ....    0.1000
 Fernandez-Rico         CNVRico         .... off

SCF Procedure:
 Maximum # iterations   MaxIter         ....   125
 SCF integral mode      SCFMode         .... Direct
   Integral package                     .... SHARK and LIBINT hybrid scheme
 Reset frequency        DirectResetFreq ....    20
 Integral Threshold     Thresh          ....  2.500e-11 Eh
 Primitive CutOff       TCut            ....  2.500e-12 Eh

Convergence Tolerance:
 Convergence Check Mode ConvCheckMode   .... Total+1el-Energy
 Convergence forced     ConvForced      .... 0
 Energy Change          TolE            ....  1.000e-08 Eh
 1-El. energy change                    ....  1.000e-05 Eh
 Orbital Gradient       TolG            ....  1.000e-05
 Orbital Rotation angle TolX            ....  1.000e-05
 DIIS Error             TolErr          ....  5.000e-07


Diagonalization of the overlap matrix:
Smallest eigenvalue                        ... 6.186e-03
Time for diagonalization                   ...    0.026 sec
Threshold for overlap eigenvalues          ... 1.000e-08
Number of eigenvalues below threshold      ... 0
Time for construction of square roots      ...    0.296 sec
Total time needed                          ...    0.323 sec

--------------------------------
INITIAL GUESS: MINIMAL BASIS EHT
--------------------------------
The minimal basis has 40 functions
EHT matrix was diagonalized
Basis set overlap was calculated now projecting the orbitals
Using GuessMode=FMatrix for the initial guess
C*T matrix was formed
Effective Fockian was calculated
Effective Fockian was diagonalized
Initial density was built
                      ------------------
                      INITIAL GUESS DONE
                      ------------------
-------------------
DFT GRID GENERATION
-------------------

General Integration Accuracy     IntAcc      ... 4.959
Radial Grid Type                 RadialGrid  ... OptM3 with GC (2021)
Angular Grid (max. ang.)         AngularGrid ... 6 (Lebedev-590)
Angular grid pruning method      GridPruning ... 4 (adaptive)
Weight generation scheme         WeightScheme... Becke
Basis function cutoff            BFCut       ... 1.0000e-11
Integration weight cutoff        WCut        ... 1.0000e-14
Angular grids for H and He will be reduced by one unit
Partially contracted basis set               ... off
Rotationally invariant grid construction     ... off

Total number of grid points                  ...   172972
Total number of batches                      ...     2709
Average number of points per batch           ...       63
Average number of grid points per atom       ...    10811
Time for grid setup =    3.284 sec

--------------------
COSX GRID GENERATION
--------------------

GRIDX 1
-------
General Integration Accuracy     IntAcc      ... 4.020
Radial Grid Type                 RadialGrid  ... OptM3 with GC (2021)
Angular Grid (max. ang.)         AngularGrid ... 2 (Lebedev-110)
Angular grid pruning method      GridPruning ... 4 (adaptive)
Weight generation scheme         WeightScheme... Becke
Basis function cutoff            BFCut       ... 1.0000e-11
Integration weight cutoff        WCut        ... 1.0000e-14
Angular grids for H and He will be reduced by one unit
Partially contracted basis set               ... on
Rotationally invariant grid construction     ... off

Total number of grid points                  ...    18424
Total number of batches                      ...      297
Average number of points per batch           ...       62
Average number of grid points per atom       ...     1152
UseSFitting                                  ... on

GRIDX 2
-------
General Integration Accuracy     IntAcc      ... 4.338
Radial Grid Type                 RadialGrid  ... OptM3 with GC (2021)
Angular Grid (max. ang.)         AngularGrid ... 3 (Lebedev-194)
Angular grid pruning method      GridPruning ... 4 (adaptive)
Weight generation scheme         WeightScheme... Becke
Basis function cutoff            BFCut       ... 1.0000e-11
Integration weight cutoff        WCut        ... 1.0000e-14
Angular grids for H and He will be reduced by one unit
Partially contracted basis set               ... on
Rotationally invariant grid construction     ... off

Total number of grid points                  ...    40341
Total number of batches                      ...      639
Average number of points per batch           ...       63
Average number of grid points per atom       ...     2521
UseSFitting                                  ... on

GRIDX 3
-------
General Integration Accuracy     IntAcc      ... 4.871
Radial Grid Type                 RadialGrid  ... OptM3 with GC (2021)
Angular Grid (max. ang.)         AngularGrid ... 4 (Lebedev-302)
Angular grid pruning method      GridPruning ... 4 (adaptive)
Weight generation scheme         WeightScheme... Becke
Basis function cutoff            BFCut       ... 1.0000e-11
Integration weight cutoff        WCut        ... 1.0000e-14
Angular grids for H and He will be reduced by one unit
Partially contracted basis set               ... on
Rotationally invariant grid construction     ... off

Total number of grid points                  ...    79460
Total number of batches                      ...     1251
Average number of points per batch           ...       63
Average number of grid points per atom       ...     4966
UseSFitting                                  ... on

Time for X-Grid setup             =    3.927 sec

--------------
SCF ITERATIONS
--------------
ITER       Energy         Delta-E        Max-DP      RMS-DP      [F,P]     Damp
               ***  Starting incremental Fock matrix formation  ***
  0   -307.3847435367   0.000000000000 0.15504344  0.00630716  0.4604274 0.7000
  1   -307.6889673910  -0.304223854322 0.08516515  0.00366006  0.2803332 0.7000
                               ***Turning on DIIS***
  2   -307.8533267715  -0.164359380509 0.04118122  0.00198025  0.1975640 0.7000
  3   -307.9653790606  -0.112052289075 0.02390336  0.00119474  0.1388826 0.7000
  4   -308.0449201403  -0.079541079780 0.05016376  0.00295042  0.0972197 0.0000
  5   -308.2356447553  -0.190724614983 0.00857309  0.00030760  0.0091329 0.0000
  6   -308.2358412419  -0.000196486564 0.00254066  0.00008759  0.0051122 0.0000
                      *** Initiating the SOSCF procedure ***
                           *** Shutting down DIIS ***
                      *** Re-Reading the Fockian *** 
                      *** Removing any level shift *** 
ITER      Energy       Delta-E        Grad      Rot      Max-DP    RMS-DP
  7   -308.23591265  -0.0000714095  0.000360  0.000360  0.001526  0.000061
               *** Restarting incremental Fock matrix formation ***
  8   -308.23591447  -0.0000018198  0.000054  0.000110  0.000234  0.000010
  9   -308.23591462  -0.0000001504  0.000036  0.000032  0.000087  0.000004
 10   -308.23591468  -0.0000000626  0.000004  0.000004  0.000013  0.000001
 11   -308.23591469  -0.0000000010  0.000004  0.000002  0.000007  0.000000
                  ***Gradient check signals convergence***
              ***Rediagonalizing the Fockian in SOSCF/NRSCF***

               *****************************************************
               *                     SUCCESS                       *
               *           SCF CONVERGED AFTER  12 CYCLES          *
               *****************************************************

Old exchange energy                            =    -17.133089376 Eh
New exchange energy                            =    -17.133093332 Eh
Exchange energy change after final integration =     -0.000003957 Eh
Total energy after final integration           =   -308.235918641 Eh
Final COS-X integration done in                =     3.950 sec

----------------
TOTAL SCF ENERGY
----------------

Total Energy       :         -308.23591864 Eh           -8387.52576 eV

Components:
Nuclear Repulsion  :          253.56285321 Eh            6899.79601 eV
Electronic Energy  :         -561.79877185 Eh          -15287.32177 eV
One Electron Energy:         -921.99791111 Eh          -25088.83865 eV
Two Electron Energy:          360.19913927 Eh            9801.51688 eV
Max COSX asymmetry :            0.00000159 Eh               0.00004 eV

Virial components:
Potential Energy   :         -614.26603579 Eh          -16715.02861 eV
Kinetic Energy     :          306.03011715 Eh            8327.50285 eV
Virial Ratio       :            2.00720779


DFT components:
N(Alpha)           :       24.999989391337 electrons
N(Beta)            :       24.999989391337 electrons
N(Total)           :       49.999978782674 electrons
E(X)               :      -22.763435897096 Eh       
E(C)               :       -2.177624138097 Eh       
E(XC)              :      -24.941060035193 Eh       
DFET-embed. en.    :        0.000000000000 Eh       

---------------
SCF CONVERGENCE
---------------

  Last Energy change         ...    9.9482e-10  Tolerance :   1.0000e-08
  Last MAX-Density change    ...    9.9920e-16  Tolerance :   1.0000e-07
  Last RMS-Density change    ...    4.8620e-17  Tolerance :   5.0000e-09
  Last Orbital Gradient      ...    8.0431e-07  Tolerance :   1.0000e-05
  Last Orbital Rotation      ...    7.3890e-07  Tolerance :   1.0000e-05

             **** THE GBW FILE WAS UPDATED (pbeh-3c.gbw) ****
             **** DENSITY pbeh-3c.scfp WAS UPDATED ****
             **** ENERGY FILE WAS UPDATED (pbeh-3c.en.tmp) ****
             **** THE GBW FILE WAS UPDATED (pbeh-3c.gbw) ****
             **** DENSITY pbeh-3c.scfp WAS UPDATED ****
----------------
ORBITAL ENERGIES
----------------

  NO   OCC          E(Eh)            E(eV) 
   0   2.0000     -19.489404      -530.3336 
   1   2.0000     -19.488754      -530.3160 
   2   2.0000     -10.486921      -285.3636 
   3   2.0000     -10.484122      -285.2875 
   4   2.0000     -10.441420      -284.1255 
   5   2.0000     -10.439688      -284.0784 
   6   2.0000      -1.126540       -30.6547 
   7   2.0000      -1.124546       -30.6005 
   8   2.0000      -0.888414       -24.1750 
   9   2.0000      -0.798784       -21.7360 
  10   2.0000      -0.725319       -19.7369 
  11   2.0000      -0.658478       -17.9181 
  12   2.0000      -0.588310       -16.0087 
  13   2.0000      -0.559506       -15.2249 
  14   2.0000      -0.537836       -14.6353 
  15   2.0000      -0.513016       -13.9599 
  16   2.0000      -0.487492       -13.2653 
  17   2.0000      -0.471322       -12.8253 
  18   2.0000      -0.448692       -12.2095 
  19   2.0000      -0.416871       -11.3436 
  20   2.0000      -0.402768       -10.9599 
  21   2.0000      -0.386570       -10.5191 
  22   2.0000      -0.375820       -10.2266 
  23   2.0000      -0.332007        -9.0344 
  24   2.0000      -0.322891        -8.7863 
  25   0.0000       0.094830         2.5805 
  26   0.0000       0.125722         3.4211 
  27   0.0000       0.166830         4.5397 
  28   0.0000       0.172045         4.6816 
  29   0.0000       0.178709         4.8629 
  30   0.0000       0.199141         5.4189 
  31   0.0000       0.214969         5.8496 
  32   0.0000       0.227491         6.1903 
  33   0.0000       0.230088         6.2610 
  34   0.0000       0.244364         6.6495 
  35   0.0000       0.255289         6.9468 
  36   0.0000       0.261655         7.1200 
  37   0.0000       0.275223         7.4892 
  38   0.0000       0.297619         8.0986 
  39   0.0000       0.306628         8.3438 
  40   0.0000       0.506996        13.7961 
  41   0.0000       0.517653        14.0861 
  42   0.0000       0.552780        15.0419 
  43   0.0000       0.564238        15.3537 
  44   0.0000       0.571869        15.5613 
  45   0.0000       0.581393        15.8205 
  46   0.0000       0.633294        17.2328 
  47   0.0000       0.648233        17.6393 
  48   0.0000       0.665601        18.1119 
  49   0.0000       0.708598        19.2819 
  50   0.0000       0.741966        20.1899 
  51   0.0000       0.838666        22.8213 
  52   0.0000       0.904314        24.6076 
  53   0.0000       0.915414        24.9097 
  54   0.0000       0.939530        25.5659 
  55   0.0000       0.980903        26.6917 
  56   0.0000       0.991607        26.9830 
  57   0.0000       1.011483        27.5239 
  58   0.0000       1.016026        27.6475 
  59   0.0000       1.045979        28.4625 
  60   0.0000       1.056486        28.7485 
  61   0.0000       1.063130        28.9292 
  62   0.0000       1.076935        29.3049 
  63   0.0000       1.121159        30.5083 
  64   0.0000       1.160298        31.5733 
  65   0.0000       1.174525        31.9605 
  66   0.0000       1.226075        33.3632 
  67   0.0000       1.232510        33.5383 
  68   0.0000       1.266115        34.4527 
  69   0.0000       1.307127        35.5687 
  70   0.0000       1.442859        39.2622 
  71   0.0000       1.472709        40.0745 
  72   0.0000       1.489105        40.5206 
  73   0.0000       1.562947        42.5300 
  74   0.0000       1.592338        43.3297 
  75   0.0000       1.622749        44.1572 
  76   0.0000       1.747445        47.5504 
  77   0.0000       1.791474        48.7485 
  78   0.0000       1.828385        49.7529 
  79   0.0000       1.874144        50.9980 
  80   0.0000       1.896036        51.5938 
  81   0.0000       1.913362        52.0652 
  82   0.0000       1.962635        53.4060 
  83   0.0000       1.979570        53.8668 
  84   0.0000       2.018712        54.9319 
  85   0.0000       2.030637        55.2564 
  86   0.0000       2.108792        57.3831 
  87   0.0000       2.159254        58.7563 
  88   0.0000       2.192921        59.6724 
  89   0.0000       2.221437        60.4484 
  90   0.0000       2.325072        63.2684 
  91   0.0000       2.329069        63.3772 
  92   0.0000       2.388881        65.0048 
  93   0.0000       2.418513        65.8111 
  94   0.0000       2.445845        66.5548 
  95   0.0000       2.516990        68.4908 
  96   0.0000       2.541752        69.1646 
  97   0.0000       2.596453        70.6531 
  98   0.0000       2.618785        71.2608 
  99   0.0000       2.647339        72.0378 
 100   0.0000       2.748300        74.7851 
 101   0.0000       2.798962        76.1636 
 102   0.0000       2.896655        78.8220 
 103   0.0000       2.941059        80.0303 
 104   0.0000      13.568033       369.2049 
 105   0.0000      13.805534       375.6677 
 106   0.0000      13.988508       380.6467 
 107   0.0000      14.030704       381.7949 
 108   0.0000      25.502453       693.9570 
 109   0.0000      25.556057       695.4157 

                    ********************************
                    * MULLIKEN POPULATION ANALYSIS *
                    ********************************

-----------------------
MULLIKEN ATOMIC CHARGES
-----------------------
   0 C :   -0.134803
   1 H :    0.211918
   2 O :   -0.619494
   3 C :   -0.491600
   4 H :    0.193825
   5 H :    0.245433
   6 C :   -0.448753
   7 H :    0.207510
   8 H :    0.235609
   9 H :    0.408004
  10 H :    0.168259
  11 C :   -0.169771
  12 H :    0.224063
  13 H :    0.182479
  14 O :   -0.624257
  15 H :    0.411580
Sum of atomic charges:    0.0000000

--------------------------------
MULLIKEN REDUCED ORBITAL CHARGES
--------------------------------
  0 C s       :     3.245747  s :     3.245747
      pz      :     0.992489  p :     2.820518
      px      :     0.751511
      py      :     1.076518
      dz2     :     0.007887  d :     0.068538
      dxz     :     0.015994
      dyz     :     0.014934
      dx2y2   :     0.014129
      dxy     :     0.015595
  1 H s       :     0.788082  s :     0.788082
  2 O s       :     3.814821  s :     3.814821
      pz      :     1.590700  p :     4.775169
      px      :     1.507148
      py      :     1.677321
      dz2     :     0.003918  d :     0.029504
      dxz     :     0.004328
      dyz     :     0.008754
      dx2y2   :     0.008503
      dxy     :     0.004000
  3 C s       :     3.333668  s :     3.333668
      pz      :     1.020360  p :     3.115295
      px      :     0.986270
      py      :     1.108665
      dz2     :     0.004002  d :     0.042637
      dxz     :     0.009437
      dyz     :     0.013593
      dx2y2   :     0.006425
      dxy     :     0.009181
  4 H s       :     0.806175  s :     0.806175
  5 H s       :     0.754567  s :     0.754567
  6 C s       :     3.330457  s :     3.330457
      pz      :     1.103394  p :     3.075830
      px      :     0.958601
      py      :     1.013835
      dz2     :     0.004100  d :     0.042465
      dxz     :     0.009442
      dyz     :     0.013051
      dx2y2   :     0.007098
      dxy     :     0.008774
  7 H s       :     0.792490  s :     0.792490
  8 H s       :     0.764391  s :     0.764391
  9 H s       :     0.591996  s :     0.591996
 10 H s       :     0.831741  s :     0.831741
 11 C s       :     3.262609  s :     3.262609
      pz      :     0.907620  p :     2.838830
      px      :     1.077002
      py      :     0.854208
      dz2     :     0.013847  d :     0.068332
      dxz     :     0.010997
      dyz     :     0.017644
      dx2y2   :     0.009966
      dxy     :     0.015877
 12 H s       :     0.775937  s :     0.775937
 13 H s       :     0.817521  s :     0.817521
 14 O s       :     3.816473  s :     3.816473
      pz      :     1.713122  p :     4.778499
      px      :     1.587983
      py      :     1.477393
      dz2     :     0.005485  d :     0.029285
      dxz     :     0.004283
      dyz     :     0.004404
      dx2y2   :     0.004226
      dxy     :     0.010887
 15 H s       :     0.588420  s :     0.588420


                     *******************************
                     * LOEWDIN POPULATION ANALYSIS *
                     *******************************

----------------------
LOEWDIN ATOMIC CHARGES
----------------------
   0 C :   -0.097650
   1 H :    0.120831
   2 O :   -0.408452
   3 C :   -0.274995
   4 H :    0.113536
   5 H :    0.137737
   6 C :   -0.263623
   7 H :    0.126461
   8 H :    0.134379
   9 H :    0.305559
  10 H :    0.091480
  11 C :   -0.097197
  12 H :    0.123387
  13 H :    0.097214
  14 O :   -0.412864
  15 H :    0.304195

-------------------------------
LOEWDIN REDUCED ORBITAL CHARGES
-------------------------------
  0 C s       :     2.908029  s :     2.908029
      pz      :     1.066799  p :     3.045489
      px      :     0.886258
      py      :     1.092432
      dz2     :     0.016267  d :     0.144132
      dxz     :     0.036680
      dyz     :     0.028619
      dx2y2   :     0.029916
      dxy     :     0.032649
  1 H s       :     0.879169  s :     0.879169
  2 O s       :     3.528637  s :     3.528637
      pz      :     1.600519  p :     4.828633
      px      :     1.545168
      py      :     1.682946
      dz2     :     0.007251  d :     0.051183
      dxz     :     0.008610
      dyz     :     0.012936
      dx2y2   :     0.014619
      dxy     :     0.007767
  3 C s       :     2.920323  s :     2.920323
      pz      :     1.090641  p :     3.267238
      px      :     1.068022
      py      :     1.108576
      dz2     :     0.008761  d :     0.087434
      dxz     :     0.021170
      dyz     :     0.025647
      dx2y2   :     0.013232
      dxy     :     0.018623
  4 H s       :     0.886464  s :     0.886464
  5 H s       :     0.862263  s :     0.862263
  6 C s       :     2.920393  s :     2.920393
      pz      :     1.109413  p :     3.256046
      px      :     1.061735
      py      :     1.084899
      dz2     :     0.008083  d :     0.087183
      dxz     :     0.019079
      dyz     :     0.024355
      dx2y2   :     0.015673
      dxy     :     0.019994
  7 H s       :     0.873539  s :     0.873539
  8 H s       :     0.865621  s :     0.865621
  9 H s       :     0.694441  s :     0.694441
 10 H s       :     0.908520  s :     0.908520
 11 C s       :     2.908943  s :     2.908943
      pz      :     0.990950  p :     3.044046
      px      :     1.098107
      py      :     0.954989
      dz2     :     0.028975  d :     0.144208
      dxz     :     0.022133
      dyz     :     0.038758
      dx2y2   :     0.019968
      dxy     :     0.034374
 12 H s       :     0.876613  s :     0.876613
 13 H s       :     0.902786  s :     0.902786
 14 O s       :     3.529782  s :     3.529782
      pz      :     1.737387  p :     4.832016
      px      :     1.597306
      py      :     1.497323
      dz2     :     0.009329  d :     0.051067
      dxz     :     0.007093
      dyz     :     0.009235
      dx2y2   :     0.007305
      dxy     :     0.018104
 15 H s       :     0.695805  s :     0.695805


                      *****************************
                      * MAYER POPULATION ANALYSIS *
                      *****************************

  NA   - Mulliken gross atomic population
  ZA   - Total nuclear charge
  QA   - Mulliken gross atomic charge
  VA   - Mayer's total valence
  BVA  - Mayer's bonded valence
  FA   - Mayer's free valence

  ATOM       NA         ZA         QA         VA         BVA        FA
  0 C      6.1348     6.0000    -0.1348     3.7810     3.7810     0.0000
  1 H      0.7881     1.0000     0.2119     0.9081     0.9081     0.0000
  2 O      8.6195     8.0000    -0.6195     1.8653     1.8653     0.0000
  3 C      6.4916     6.0000    -0.4916     3.7439     3.7439     0.0000
  4 H      0.8062     1.0000     0.1938     0.9187     0.9187     0.0000
  5 H      0.7546     1.0000     0.2454     0.9011     0.9011    -0.0000
  6 C      6.4488     6.0000    -0.4488     3.7003     3.7003     0.0000
  7 H      0.7925     1.0000     0.2075     0.9092     0.9092     0.0000
  8 H      0.7644     1.0000     0.2356     0.9014     0.9014     0.0000
  9 H      0.5920     1.0000     0.4080     0.8073     0.8073    -0.0000
 10 H      0.8317     1.0000     0.1683     0.9112     0.9112     0.0000
 11 C      6.1698     6.0000    -0.1698     3.7727     3.7727     0.0000
 12 H      0.7759     1.0000     0.2241     0.9051     0.9051     0.0000
 13 H      0.8175     1.0000     0.1825     0.9084     0.9084     0.0000
 14 O      8.6243     8.0000    -0.6243     1.8518     1.8518    -0.0000
 15 H      0.5884     1.0000     0.4116     0.8055     0.8055     0.0000

  Mayer bond orders larger than 0.100000
B(  0-C ,  1-H ) :   0.9115 B(  0-C ,  2-O ) :   1.0209 B(  0-C ,  3-C ) :   0.9739 
B(  0-C , 10-H ) :   0.9101 B(  2-O ,  9-H ) :   0.7952 B(  3-C ,  4-H ) :   0.9152 
B(  3-C ,  5-H ) :   0.9111 B(  3-C ,  6-C ) :   0.9725 B(  6-C ,  7-H ) :   0.9096 
B(  6-C ,  8-H ) :   0.9138 B(  6-C , 11-C ) :   0.9583 B( 11-C , 12-H ) :   0.9177 
B( 11-C , 13-H ) :   0.9121 B( 11-C , 14-O ) :   1.0166 B( 14-O , 15-H ) :   0.7920 


-------
TIMINGS
-------

Total SCF time: 0 days 0 hours 1 min 32 sec 

Total time                  ....      92.252 sec
Sum of individual times     ....      83.090 sec  ( 90.1%)

Fock matrix formation       ....      70.856 sec  ( 76.8%)
  Split-RI-J                ....       8.932 sec  ( 12.6% of F)
  Chain of spheres X        ....      21.591 sec  ( 30.5% of F)
  XC integration            ....      21.012 sec  ( 29.7% of F)
    Basis function eval.    ....       3.616 sec  ( 17.2% of XC)
    Density eval.           ....       2.033 sec  (  9.7% of XC)
    XC-Functional eval.     ....       1.693 sec  (  8.1% of XC)
    XC-Potential eval.      ....       1.038 sec  (  4.9% of XC)
Diagonalization             ....       1.199 sec  (  1.3%)
Density matrix formation    ....       0.114 sec  (  0.1%)
Population analysis         ....       0.012 sec  (  0.0%)
Initial guess               ....       0.025 sec  (  0.0%)
Orbital Transformation      ....       0.000 sec  (  0.0%)
Orbital Orthonormalization  ....       0.000 sec  (  0.0%)
DIIS solution               ....       2.159 sec  (  2.3%)
SOSCF solution              ....       1.514 sec  (  1.6%)
Grid generation             ....       7.211 sec  (  7.8%)

Maximum memory used throughout the entire SCF-calculation: 52.8 MB


-------------------------------------------------------------------------------
                          DFT DISPERSION CORRECTION                            
                                                                               
                              DFTD3 V3.1  Rev 1                                
                          USING Becke-Johnson damping                          
-------------------------------------------------------------------------------
The PBEh-3c composite method is recognized
Using three-body term ABC
Active option DFTDOPT                   ...         4   

molecular C6(AA) [au] = 1675.107764 


            DFT-D V3
 parameters
 s6 scaling factor         :     1.0000 
 a1 scaling factor         :     0.4860 
 s8 scaling factor         :     0.0000 
 a2 scaling factor         :     4.5000 
 Damping factor alpha9(ATM):    16.0000 
 ad hoc parameters k1-k3   :    16.0000     1.3333    -4.0000 

 Edisp/kcal,au: -4.250559820455  -0.006773697518 
 E6   /kcal   :  -4.278540569 
 E8   /kcal   :  -0.000000000 
 E6(ABC)      :   0.027980748 
 % E8         :   0.000000000 
 % E6(ABC)    :  -0.658283841 

-------------------------   ----------------
Dispersion correction           -0.006773698
-------------------------   ----------------

------------------   -----------------
gCP correction             0.037261977
------------------   -----------------

-------------------------   --------------------
FINAL SINGLE POINT ENERGY      -308.205430360965
-------------------------   --------------------


                            ***************************************
                            *     ORCA property calculations      *
                            ***************************************

                                    ---------------------
                                    Active property flags
                                    ---------------------
   (+) Dipole Moment


------------------------------------------------------------------------------
                       ORCA ELECTRIC PROPERTIES CALCULATION
------------------------------------------------------------------------------

Dipole Moment Calculation                       ... on
Quadrupole Moment Calculation                   ... off
Polarizability Calculation                      ... off
GBWName                                         ... pbeh-3c.gbw
Electron density                                ... pbeh-3c.scfp
The origin for moment calculation is the CENTER OF MASS  = (-0.017160, -0.037021 -0.012278)

-------------
DIPOLE MOMENT
-------------
                                X             Y             Z
Electronic contribution:     -0.89621      -1.93755      -0.67088
Nuclear contribution   :      0.85803       1.85106       0.61389
                        -----------------------------------------
Total Dipole Moment    :     -0.03818      -0.08649      -0.05699
                        -----------------------------------------
Magnitude (a.u.)       :      0.11039
Magnitude (Debye)      :      0.28059



--------------------
Rotational spectrum 
--------------------
 
Rotational constants in cm-1:     0.231186     0.055491     0.051063 
Rotational constants in MHz :  6930.784393  1663.579686  1530.839618 

 Dipole components along the rotational axes: 
x,y,z [a.u.] :     0.036233    -0.087052    -0.057404 
x,y,z [Debye]:     0.092097    -0.221269    -0.145909 

 

Timings for individual modules:

Sum of individual times         ...       95.756 sec (=   1.596 min)
GTO integral calculation        ...        2.776 sec (=   0.046 min)   2.9 %
SCF iterations                  ...       92.980 sec (=   1.550 min)  97.1 %
                             ****ORCA TERMINATED NORMALLY****
TOTAL RUN TIME: 0 days 0 hours 1 minutes 38 seconds 762 msec
