
                                 *****************
                                 * O   R   C   A *
                                 *****************

                                            #,                                       
                                            ###                                      
                                            ####                                     
                                            #####                                    
                                            ######                                   
                                           ########,                                 
                                     ,,################,,,,,                         
                               ,,#################################,,                 
                          ,,##########################################,,             
                       ,#########################################, ''#####,          
                    ,#############################################,,   '####,        
                  ,##################################################,,,,####,       
                ,###########''''           ''''###############################       
              ,#####''   ,,,,##########,,,,          '''####'''          '####       
            ,##' ,,,,###########################,,,                        '##       
           ' ,,###''''                  '''############,,,                           
         ,,##''                                '''############,,,,        ,,,,,,###''
      ,#''                                            '''#######################'''  
     '                                                          ''''####''''         
             ,#######,   #######,   ,#######,      ##                                
            ,#'     '#,  ##    ##  ,#'     '#,    #''#        ######   ,####,        
            ##       ##  ##   ,#'  ##            #'  '#       #        #'  '#        
            ##       ##  #######   ##           ,######,      #####,   #    #        
            '#,     ,#'  ##    ##  '#,     ,#' ,#      #,         ##   #,  ,#        
             '#######'   ##     ##  '#######'  #'      '#     #####' # '####'        



                  #######################################################
                  #                        -***-                        #
                  #          Department of theory and spectroscopy      #
                  #    Directorship and core code : Frank Neese         #
                  #        Max Planck Institute fuer Kohlenforschung    #
                  #                Kaiser Wilhelm Platz 1               #
                  #                 D-45470 Muelheim/Ruhr               #
                  #                      Germany                        #
                  #                                                     #
                  #                  All rights reserved                #
                  #                        -***-                        #
                  #######################################################


                         Program Version 5.0.3 -  RELEASE  -


 With contributions from (in alphabetic order):
   Daniel Aravena         : Magnetic Suceptibility
   Michael Atanasov       : Ab Initio Ligand Field Theory (pilot matlab implementation)
   Alexander A. Auer      : GIAO ZORA, VPT2 properties, NMR spectrum
   Ute Becker             : Parallelization
   Giovanni Bistoni       : ED, misc. LED, open-shell LED, HFLD
   Martin Brehm           : Molecular dynamics
   Dmytro Bykov           : SCF Hessian
   Vijay G. Chilkuri      : MRCI spin determinant printing, contributions to CSF-ICE
   Dipayan Datta          : RHF DLPNO-CCSD density
   Achintya Kumar Dutta   : EOM-CC, STEOM-CC
   Dmitry Ganyushin       : Spin-Orbit,Spin-Spin,Magnetic field MRCI
   Miquel Garcia          : C-PCM and meta-GGA Hessian, CC/C-PCM, Gaussian charge scheme
   Yang Guo               : DLPNO-NEVPT2, F12-NEVPT2, CIM, IAO-localization
   Andreas Hansen         : Spin unrestricted coupled pair/coupled cluster methods
   Benjamin Helmich-Paris : MC-RPA, TRAH-SCF, COSX integrals
   Lee Huntington         : MR-EOM, pCC
   Robert Izsak           : Overlap fitted RIJCOSX, COSX-SCS-MP3, EOM
   Marcus Kettner         : VPT2
   Christian Kollmar      : KDIIS, OOCD, Brueckner-CCSD(T), CCSD density, CASPT2, CASPT2-K
   Simone Kossmann        : Meta GGA functionals, TD-DFT gradient, OOMP2, MP2 Hessian
   Martin Krupicka        : Initial AUTO-CI
   Lucas Lang             : DCDCAS
   Marvin Lechner         : AUTO-CI (C++ implementation), FIC-MRCC
   Dagmar Lenk            : GEPOL surface, SMD
   Dimitrios Liakos       : Extrapolation schemes; Compound Job, initial MDCI parallelization
   Dimitrios Manganas     : Further ROCIS development; embedding schemes
   Dimitrios Pantazis     : SARC Basis sets
   Anastasios Papadopoulos: AUTO-CI, single reference methods and gradients
   Taras Petrenko         : DFT Hessian,TD-DFT gradient, ASA, ECA, R-Raman, ABS, FL, XAS/XES, NRVS
   Peter Pinski           : DLPNO-MP2, DLPNO-MP2 Gradient
   Christoph Reimann      : Effective Core Potentials
   Marius Retegan         : Local ZFS, SOC
   Christoph Riplinger    : Optimizer, TS searches, QM/MM, DLPNO-CCSD(T), (RO)-DLPNO pert. Triples
   Tobias Risthaus        : Range-separated hybrids, TD-DFT gradient, RPA, STAB
   Michael Roemelt        : Original ROCIS implementation
   Masaaki Saitow         : Open-shell DLPNO-CCSD energy and density
   Barbara Sandhoefer     : DKH picture change effects
   Avijit Sen             : IP-ROCIS
   Kantharuban Sivalingam : CASSCF convergence, NEVPT2, FIC-MRCI
   Bernardo de Souza      : ESD, SOC TD-DFT
   Georgi Stoychev        : AutoAux, RI-MP2 NMR, DLPNO-MP2 response
   Willem Van den Heuvel  : Paramagnetic NMR
   Boris Wezisla          : Elementary symmetry handling
   Frank Wennmohs         : Technical directorship


 We gratefully acknowledge several colleagues who have allowed us to
 interface, adapt or use parts of their codes:
   Stefan Grimme, W. Hujo, H. Kruse, P. Pracht,  : VdW corrections, initial TS optimization,
                  C. Bannwarth, S. Ehlert          DFT functionals, gCP, sTDA/sTD-DF
   Ed Valeev, F. Pavosevic, A. Kumar             : LibInt (2-el integral package), F12 methods
   Garnet Chan, S. Sharma, J. Yang, R. Olivares  : DMRG
   Ulf Ekstrom                                   : XCFun DFT Library
   Mihaly Kallay                                 : mrcc  (arbitrary order and MRCC methods)
   Jiri Pittner, Ondrej Demel                    : Mk-CCSD
   Frank Weinhold                                : gennbo (NPA and NBO analysis)
   Christopher J. Cramer and Donald G. Truhlar   : smd solvation model
   Lars Goerigk                                  : TD-DFT with DH, B97 family of functionals
   V. Asgeirsson, H. Jonsson                     : NEB implementation
   FAccTs GmbH                                   : IRC, NEB, NEB-TS, DLPNO-Multilevel, CI-OPT
                                                   MM, QMMM, 2- and 3-layer-ONIOM, Crystal-QMMM,
                                                   LR-CPCM, SF, NACMEs, symmetry and pop. for TD-DFT,
                                                   nearIR, NL-DFT gradient (VV10), updates on ESD,
                                                   ML-optimized integration grids
   S Lehtola, MJT Oliveira, MAL Marques          : LibXC Library
   Liviu Ungur et al                             : ANISO software


 Your calculation uses the libint2 library for the computation of 2-el integrals
 For citations please refer to: http://libint.valeyev.net

 Your ORCA version has been built with support for libXC version: 5.1.0
 For citations please refer to: https://tddft.org/programs/libxc/

 This ORCA versions uses:
   CBLAS   interface :  Fast vector & matrix operations
   LAPACKE interface :  Fast linear algebra routines
   SCALAPACK package :  Parallel linear algebra routines
   Shared memory     :  Shared parallel matrices
   BLAS/LAPACK       :  OpenBLAS 0.3.15  USE64BITINT DYNAMIC_ARCH NO_AFFINITY Haswell SINGLE_THREADED
        Core in use  :  Haswell
   Copyright (c) 2011-2014, The OpenBLAS Project




***************************************
The coordinates will be read from file: C4H9ONO.xyz
***************************************


Your calculation utilizes the geometrical counterpoise correction gCP
Please cite in your paper:
H.Kruse, S. Grimme J.Chem.Phys., 136, (2012), 154101 
   

Your calculation utilizes the atom-pairwise dispersion correction
with the Becke-Johnson damping scheme (D3BJ)
Cite in your paper:
S.Grimme, S.Ehrlich, L.Goerigk, J Comput Chem, (2011), 32, 1456–1465 
S.Grimme, J.Antony, S.Ehrlich and H.Krieg, J.Chem.Phys., 132, (2010), 154104 
   

Your calculation employs the composite approach PBEh-3c.
Please cite in your paper:
S. Grimme, J. G. Brandenburg, C. Bannwarth, A. Hansen J.Chem.Phys., 143, (2015), 054107 
   

================================================================================

----- Orbital basis set information -----
Your calculation utilizes the basis: def2-mSVP

----- AuxJ basis set information -----
Your calculation utilizes the auxiliary basis: def2/J
   F. Weigend, Phys. Chem. Chem. Phys. 8, 1057 (2006).

================================================================================
                                        WARNINGS
                       Please study these warnings very carefully!
================================================================================


INFO   : the flag for use of the SHARK integral package has been found!

================================================================================
                                       INPUT FILE
================================================================================
NAME = pbeh-3c.inp
|  1> ! PBEh-3c def2/J TightSCF DefGrid3
|  2> 
|  3> %maxcore 60000
|  4> 
|  5> %pal
|  6> nprocs 4
|  7> end
|  8> 
|  9> *xyzfile 0 1 C4H9ONO.xyz
| 10> 
| 11>                          ****END OF INPUT****
================================================================================

                       ****************************
                       * Single Point Calculation *
                       ****************************

---------------------------------
CARTESIAN COORDINATES (ANGSTROEM)
---------------------------------
  C      0.057450    1.051876   -2.154772
  H      1.079720    1.434308   -2.016623
  H      0.117292    0.177144   -2.819345
  H     -0.521772    1.827717   -2.674790
  C     -0.582372    0.685162   -0.813301
  H     -0.660365    1.586866   -0.183250
  H     -1.616355    0.338638   -0.980777
  C      0.199271   -0.396361   -0.057762
  H      0.278420   -1.305333   -0.675185
  H      1.227748   -0.049401    0.130771
  C     -0.461560   -0.758965    1.271169
  H     -1.481646   -1.140911    1.120461
  H     -0.504856    0.114535    1.941060
  O      0.230641   -1.836768    1.938761
  N      1.248101   -1.446661    2.915088
  O      1.390282   -0.281844    3.058495

----------------------------
CARTESIAN COORDINATES (A.U.)
----------------------------
  NO LB      ZA    FRAG     MASS         X           Y           Z
   0 C     6.0000    0    12.011    0.108565    1.987757   -4.071929
   1 H     1.0000    0     1.008    2.040375    2.710448   -3.810865
   2 H     1.0000    0     1.008    0.221650    0.334753   -5.327790
   3 H     1.0000    0     1.008   -0.986006    3.453884   -5.054620
   4 C     6.0000    0    12.011   -1.100523    1.294768   -1.536916
   5 H     1.0000    0     1.008   -1.247908    2.998742   -0.346293
   6 H     1.0000    0     1.008   -3.054469    0.639933   -1.853400
   7 C     6.0000    0    12.011    0.376568   -0.749013   -0.109154
   8 H     1.0000    0     1.008    0.526138   -2.466721   -1.275915
   9 H     1.0000    0     1.008    2.320107   -0.093355    0.247121
  10 C     6.0000    0    12.011   -0.872223   -1.434237    2.402162
  11 H     1.0000    0     1.008   -2.799906   -2.156009    2.117363
  12 H     1.0000    0     1.008   -0.954039    0.216439    3.668071
  13 O     8.0000    0    15.999    0.435848   -3.470988    3.663727
  14 N     7.0000    0    14.007    2.358569   -2.733793    5.508719
  15 O     8.0000    0    15.999    2.627253   -0.532608    5.779717

--------------------------------
INTERNAL COORDINATES (ANGSTROEM)
--------------------------------
 C      0   0   0     0.000000000000     0.00000000     0.00000000
 H      1   0   0     1.100170337650     0.00000000     0.00000000
 H      1   2   0     1.100179086930   107.55914274     0.00000000
 H      1   2   3     1.099020611918   107.68238210   244.17098972
 C      1   2   3     1.530815596630   111.19847743   121.97432896
 H      5   1   2     1.102777126378   109.53287834    62.10019915
 H      5   1   2     1.103289863643   109.50716367   178.06277066
 C      5   1   2     1.533458777803   112.80952765   300.06212062
 H      8   5   1     1.101682948498   110.02341486   301.78816647
 H      8   5   1     1.101675795628   109.75841020    59.00670907
 C      8   5   1     1.527821705551   112.05386905   180.57288009
 H     11   8   5     1.099622945886   111.37493231    59.94481384
 H     11   8   5     1.101648714279   110.96124120   298.57489376
 O     11   8   5     1.444464996239   111.82808922   176.33524374
 N     14  11   8     1.463087117783   116.27704405    93.56475368
 O     15  14  11     1.182192975399   115.29626488     0.37736973

---------------------------
INTERNAL COORDINATES (A.U.)
---------------------------
 C      0   0   0     0.000000000000     0.00000000     0.00000000
 H      1   0   0     2.079020638822     0.00000000     0.00000000
 H      1   2   0     2.079037172566   107.55914274     0.00000000
 H      1   2   3     2.076847972060   107.68238210   244.17098972
 C      1   2   3     2.892822239167   111.19847743   121.97432896
 H      5   1   2     2.083946755607   109.53287834    62.10019915
 H      5   1   2     2.084915688617   109.50716367   178.06277066
 C      5   1   2     2.897817127705   112.80952765   300.06212062
 H      8   5   1     2.081879059072   110.02341486   301.78816647
 H      8   5   1     2.081865542106   109.75841020    59.00670907
 C      8   5   1     2.887164604951   112.05386905   180.57288009
 H     11   8   5     2.077986218300   111.37493231    59.94481384
 H     11   8   5     2.081814365774   110.96124120   298.57489376
 O     11   8   5     2.729643252927   111.82808922   176.33524374
 N     14  11   8     2.764833962677   116.27704405    93.56475368
 O     15  14  11     2.234020960950   115.29626488     0.37736973

---------------------
BASIS SET INFORMATION
---------------------
There are 4 groups of distinct atoms

 Group   1 Type C   : 8s4p1d contracted to 4s2p1d pattern {5111/31/1}
 Group   2 Type H   : 4s contracted to 2s pattern {31}
 Group   3 Type O   : 8s4p1d contracted to 4s2p1d pattern {5111/31/1}
 Group   4 Type N   : 8s4p1d contracted to 4s2p1d pattern {5111/31/1}

Atom   0C    basis set group =>   1
Atom   1H    basis set group =>   2
Atom   2H    basis set group =>   2
Atom   3H    basis set group =>   2
Atom   4C    basis set group =>   1
Atom   5H    basis set group =>   2
Atom   6H    basis set group =>   2
Atom   7C    basis set group =>   1
Atom   8H    basis set group =>   2
Atom   9H    basis set group =>   2
Atom  10C    basis set group =>   1
Atom  11H    basis set group =>   2
Atom  12H    basis set group =>   2
Atom  13O    basis set group =>   3
Atom  14N    basis set group =>   4
Atom  15O    basis set group =>   3
---------------------------------
AUXILIARY/J BASIS SET INFORMATION
---------------------------------
There are 4 groups of distinct atoms

 Group   1 Type C   : 12s5p4d2f1g contracted to 6s4p3d1f1g pattern {711111/2111/211/2/1}
 Group   2 Type H   : 5s2p1d contracted to 3s1p1d pattern {311/2/1}
 Group   3 Type O   : 12s5p4d2f1g contracted to 6s4p3d1f1g pattern {711111/2111/211/2/1}
 Group   4 Type N   : 12s5p4d2f1g contracted to 6s4p3d1f1g pattern {711111/2111/211/2/1}

Atom   0C    basis set group =>   1
Atom   1H    basis set group =>   2
Atom   2H    basis set group =>   2
Atom   3H    basis set group =>   2
Atom   4C    basis set group =>   1
Atom   5H    basis set group =>   2
Atom   6H    basis set group =>   2
Atom   7C    basis set group =>   1
Atom   8H    basis set group =>   2
Atom   9H    basis set group =>   2
Atom  10C    basis set group =>   1
Atom  11H    basis set group =>   2
Atom  12H    basis set group =>   2
Atom  13O    basis set group =>   3
Atom  14N    basis set group =>   4
Atom  15O    basis set group =>   3


           ************************************************************
           *        Program running with 4 parallel MPI-processes     *
           *              working on a common directory               *
           ************************************************************
------------------------------------------------------------------------------
                           ORCA GTO INTEGRAL CALCULATION
                           -- RI-GTO INTEGRALS CHOSEN --
------------------------------------------------------------------------------
------------------------------------------------------------------------------
                   ___                                                        
                  /   \      - P O W E R E D   B Y -                         
                 /     \                                                     
                 |  |  |   _    _      __       _____    __    __             
                 |  |  |  | |  | |    /  \     |  _  \  |  |  /  |          
                  \  \/   | |  | |   /    \    | | | |  |  | /  /          
                 / \  \   | |__| |  /  /\  \   | |_| |  |  |/  /          
                |  |  |   |  __  | /  /__\  \  |    /   |      \           
                |  |  |   | |  | | |   __   |  |    \   |  |\   \          
                \     /   | |  | | |  |  |  |  | |\  \  |  | \   \       
                 \___/    |_|  |_| |__|  |__|  |_| \__\ |__|  \__/        
                                                                              
                      - O R C A' S   B I G   F R I E N D -                    
                                      &                                       
                       - I N T E G R A L  F E E D E R -                       
                                                                              
 v1 FN, 2020, v2 2021                                                         
------------------------------------------------------------------------------


Reading SHARK input file pbeh-3c.SHARKINP.tmp ... ok
----------------------
SHARK INTEGRAL PACKAGE
----------------------

Number of atoms                             ...     16
Number of basis functions                   ...    123
Number of shells                            ...     67
Maximum angular momentum                    ...      2
Integral batch strategy                     ... SHARK/LIBINT Hybrid
RI-J (if used) integral strategy            ... SPLIT-RIJ (Revised 2003 algorithm where possible)
Printlevel                                  ...      1
Contraction scheme used                     ... SEGMENTED contraction
Coulomb Range Separation                    ... NOT USED
Exchange Range Separation                   ... NOT USED
Finite Nucleus Model                        ... NOT USED
Auxiliary Coulomb fitting basis             ... AVAILABLE
   # of basis functions in Aux-J            ...    442
   # of shells in Aux-J                     ...    150
   Maximum angular momentum in Aux-J        ...      4
Auxiliary J/K fitting basis                 ... NOT available
Auxiliary Correlation fitting basis         ... NOT available
Auxiliary 'external' fitting basis          ... NOT available
Integral threshold                          ...     2.500000e-11
Primitive cut-off                           ...     2.500000e-12
Primitive pair pre-selection threshold      ...     2.500000e-12

Calculating pre-screening integrals         ... done (  0.2 sec) Dimension = 67
Organizing shell pair data                  ... done (  0.3 sec)
Shell pair information
Total number of shell pairs                 ...      2278
Shell pairs after pre-screening             ...      1988
Total number of primitive shell pairs       ...      8246
Primitive shell pairs kept                  ...      5164
          la=0 lb=0:    899 shell pairs
          la=1 lb=0:    597 shell pairs
          la=1 lb=1:    102 shell pairs
          la=2 lb=0:    273 shell pairs
          la=2 lb=1:     92 shell pairs
          la=2 lb=2:     25 shell pairs

Calculating one electron integrals          ... done (  0.0 sec)
Calculating RI/J V-Matrix + Cholesky decomp.... done (  0.6 sec)
Calculating Nuclear repulsion               ... done (  0.0 sec) ENN=    303.988845242538 Eh

SHARK setup successfully completed in   2.3 seconds

Maximum memory used throughout the entire GTOINT-calculation: 10.7 MB


           ************************************************************
           *        Program running with 4 parallel MPI-processes     *
           *              working on a common directory               *
           ************************************************************
-------------------------------------------------------------------------------
                                 ORCA SCF
-------------------------------------------------------------------------------

------------
SCF SETTINGS
------------
Hamiltonian:
 Density Functional     Method          .... DFT(GTOs)
 Exchange Functional    Exchange        .... PBE
   PBE kappa parameter   XKappa         ....  1.024500
   PBE mue parameter    XMuePBE         ....  0.123457
 Correlation Functional Correlation     .... PBE
   PBE beta parameter  CBetaPBE         ....  0.030000
 LDA part of GGA corr.  LDAOpt          .... PW91-LDA
 Gradients option       PostSCFGGA      .... off
 Hybrid DFT is turned on
   Fraction HF Exchange ScalHFX         ....  0.420000
   Scaling of DF-GGA-X  ScalDFX         ....  0.580000
   Scaling of DF-GGA-C  ScalDFC         ....  1.000000
   Scaling of DF-LDA-C  ScalLDAC        ....  1.000000
   Perturbative correction              ....  0.000000
   Density functional embedding theory  .... OFF
 RI-approximation to the Coulomb term is turned on
   Number of AuxJ basis functions       .... 442
   RIJ-ON(X) (HFX calculated with O(N)) .... on
   Number of AuxJ basis functions       .... 442
   RIJ-COSX (HFX calculated with COS-X)).... on


General Settings:
 Integral files         IntName         .... pbeh-3c
 Hartree-Fock type      HFTyp           .... RHF
 Total Charge           Charge          ....    0
 Multiplicity           Mult            ....    1
 Number of Electrons    NEL             ....   56
 Basis Dimension        Dim             ....  123
 Nuclear Repulsion      ENuc            ....    303.9888452425 Eh

Convergence Acceleration:
 DIIS                   CNVDIIS         .... on
   Start iteration      DIISMaxIt       ....    12
   Startup error        DIISStart       ....  0.200000
   # of expansion vecs  DIISMaxEq       ....     5
   Bias factor          DIISBfac        ....   1.050
   Max. coefficient     DIISMaxC        ....  10.000
 Trust-Rad. Augm. Hess. CNVTRAH         .... auto
   Auto Start mean grad. ratio tolernc. ....  1.125000
   Auto Start start iteration           ....    20
   Auto Start num. interpolation iter.  ....    10
   Max. Number of Micro iterations      ....    16
   Max. Number of Macro iterations      .... Maxiter - #DIIS iter
   Number of Davidson start vectors     ....     2
   Converg. threshold I  (grad. norm)   ....   1.000e-05
   Converg. threshold II (energy diff.) ....   1.000e-08
   Grad. Scal. Fac. for Micro threshold ....   0.100
   Minimum threshold for Micro iter.    ....   0.010
   NR start threshold (gradient norm)   ....   0.001
   Initial trust radius                 ....   0.400
   Minimum AH scaling param. (alpha)    ....   1.000
   Maximum AH scaling param. (alpha)    .... 1000.000
   Orbital update algorithm             .... Taylor
   White noise on init. David. guess    .... on
   Maximum white noise                  ....   0.010
   Quad. conv. algorithm                .... NR
   COSX micro iterations for RIJONX calc.... off
 SOSCF                  CNVSOSCF        .... on
   Start iteration      SOSCFMaxIt      ....   150
   Startup grad/error   SOSCFStart      ....  0.003300
 Level Shifting         CNVShift        .... on
   Level shift para.    LevelShift      ....    0.2500
   Turn off err/grad.   ShiftErr        ....    0.0010
 Zerner damping         CNVZerner       .... off
 Static damping         CNVDamp         .... on
   Fraction old density DampFac         ....    0.7000
   Max. Damping (<1)    DampMax         ....    0.9800
   Min. Damping (>=0)   DampMin         ....    0.0000
   Turn off err/grad.   DampErr         ....    0.1000
 Fernandez-Rico         CNVRico         .... off

SCF Procedure:
 Maximum # iterations   MaxIter         ....   125
 SCF integral mode      SCFMode         .... Direct
   Integral package                     .... SHARK and LIBINT hybrid scheme
 Reset frequency        DirectResetFreq ....    20
 Integral Threshold     Thresh          ....  2.500e-11 Eh
 Primitive CutOff       TCut            ....  2.500e-12 Eh

Convergence Tolerance:
 Convergence Check Mode ConvCheckMode   .... Total+1el-Energy
 Convergence forced     ConvForced      .... 0
 Energy Change          TolE            ....  1.000e-08 Eh
 1-El. energy change                    ....  1.000e-05 Eh
 Orbital Gradient       TolG            ....  1.000e-05
 Orbital Rotation angle TolX            ....  1.000e-05
 DIIS Error             TolErr          ....  5.000e-07


Diagonalization of the overlap matrix:
Smallest eigenvalue                        ... 5.458e-03
Time for diagonalization                   ...    0.003 sec
Threshold for overlap eigenvalues          ... 1.000e-08
Number of eigenvalues below threshold      ... 0
Time for construction of square roots      ...    0.674 sec
Total time needed                          ...    0.790 sec

--------------------------------
INITIAL GUESS: MINIMAL BASIS EHT
--------------------------------
The minimal basis has 44 functions
EHT matrix was diagonalized
Basis set overlap was calculated now projecting the orbitals
Using GuessMode=FMatrix for the initial guess
C*T matrix was formed
Effective Fockian was calculated
Effective Fockian was diagonalized
Initial density was built
                      ------------------
                      INITIAL GUESS DONE
                      ------------------
-------------------
DFT GRID GENERATION
-------------------

General Integration Accuracy     IntAcc      ... 4.959
Radial Grid Type                 RadialGrid  ... OptM3 with GC (2021)
Angular Grid (max. ang.)         AngularGrid ... 6 (Lebedev-590)
Angular grid pruning method      GridPruning ... 4 (adaptive)
Weight generation scheme         WeightScheme... Becke
Basis function cutoff            BFCut       ... 1.0000e-11
Integration weight cutoff        WCut        ... 1.0000e-14
Angular grids for H and He will be reduced by one unit
Partially contracted basis set               ... off
Rotationally invariant grid construction     ... off

Total number of grid points                  ...   178921
Total number of batches                      ...     2802
Average number of points per batch           ...       63
Average number of grid points per atom       ...    11183
Time for grid setup =    4.606 sec

--------------------
COSX GRID GENERATION
--------------------

GRIDX 1
-------
General Integration Accuracy     IntAcc      ... 4.020
Radial Grid Type                 RadialGrid  ... OptM3 with GC (2021)
Angular Grid (max. ang.)         AngularGrid ... 2 (Lebedev-110)
Angular grid pruning method      GridPruning ... 4 (adaptive)
Weight generation scheme         WeightScheme... Becke
Basis function cutoff            BFCut       ... 1.0000e-11
Integration weight cutoff        WCut        ... 1.0000e-14
Angular grids for H and He will be reduced by one unit
Partially contracted basis set               ... on
Rotationally invariant grid construction     ... off

Total number of grid points                  ...    19589
Total number of batches                      ...      316
Average number of points per batch           ...       61
Average number of grid points per atom       ...     1224
UseSFitting                                  ... on

GRIDX 2
-------
General Integration Accuracy     IntAcc      ... 4.338
Radial Grid Type                 RadialGrid  ... OptM3 with GC (2021)
Angular Grid (max. ang.)         AngularGrid ... 3 (Lebedev-194)
Angular grid pruning method      GridPruning ... 4 (adaptive)
Weight generation scheme         WeightScheme... Becke
Basis function cutoff            BFCut       ... 1.0000e-11
Integration weight cutoff        WCut        ... 1.0000e-14
Angular grids for H and He will be reduced by one unit
Partially contracted basis set               ... on
Rotationally invariant grid construction     ... off

Total number of grid points                  ...    42972
Total number of batches                      ...      680
Average number of points per batch           ...       63
Average number of grid points per atom       ...     2686
UseSFitting                                  ... on

GRIDX 3
-------
General Integration Accuracy     IntAcc      ... 4.871
Radial Grid Type                 RadialGrid  ... OptM3 with GC (2021)
Angular Grid (max. ang.)         AngularGrid ... 4 (Lebedev-302)
Angular grid pruning method      GridPruning ... 4 (adaptive)
Weight generation scheme         WeightScheme... Becke
Basis function cutoff            BFCut       ... 1.0000e-11
Integration weight cutoff        WCut        ... 1.0000e-14
Angular grids for H and He will be reduced by one unit
Partially contracted basis set               ... on
Rotationally invariant grid construction     ... off

Total number of grid points                  ...    83272
Total number of batches                      ...     1309
Average number of points per batch           ...       63
Average number of grid points per atom       ...     5204
UseSFitting                                  ... on

Time for X-Grid setup             =    5.330 sec

--------------
SCF ITERATIONS
--------------
ITER       Energy         Delta-E        Max-DP      RMS-DP      [F,P]     Damp
               ***  Starting incremental Fock matrix formation  ***
  0   -361.3860279180   0.000000000000 0.11316102  0.00389567  0.3894944 0.7000
  1   -361.6312261450  -0.245198226935 0.07221546  0.00269660  0.2759247 0.7000
                               ***Turning on DIIS***
  2   -361.7944631750  -0.163237030096 0.04296772  0.00185155  0.1946415 0.7000
  3   -361.9089467458  -0.114483570773 0.03006476  0.00134798  0.1372156 0.7000
  4   -361.9904643468  -0.081517600948 0.07952623  0.00341095  0.0961626 0.0000
  5   -362.1882343964  -0.197770049642 0.01082104  0.00032806  0.0059690 0.0000
                      *** Initiating the SOSCF procedure ***
                           *** Shutting down DIIS ***
                      *** Re-Reading the Fockian *** 
                      *** Removing any level shift *** 
ITER      Energy       Delta-E        Grad      Rot      Max-DP    RMS-DP
  6   -362.18877413  -0.0005397293  0.001627  0.001627  0.003511  0.000146
               *** Restarting incremental Fock matrix formation ***
  7   -362.18890904  -0.0001349167  0.001310  0.002869  0.004037  0.000120
  8   -362.18894800  -0.0000389529  0.000552  0.002319  0.001911  0.000086
  9   -362.18895064  -0.0000026482  0.000560  0.000805  0.001042  0.000035
 10   -362.18895591  -0.0000052667  0.000122  0.000234  0.000422  0.000016
 11   -362.18895584   0.0000000662  0.000107  0.000179  0.000218  0.000009
 12   -362.18895631  -0.0000004708  0.000063  0.000113  0.000155  0.000004
 13   -362.18895629   0.0000000254  0.000078  0.000070  0.000082  0.000003
                  ***Gradient check signals convergence***
              ***Rediagonalizing the Fockian in SOSCF/NRSCF***

               *****************************************************
               *                     SUCCESS                       *
               *           SCF CONVERGED AFTER  14 CYCLES          *
               *****************************************************

Old exchange energy                            =    -19.637514145 Eh
New exchange energy                            =    -19.637521963 Eh
Exchange energy change after final integration =     -0.000007818 Eh
Total energy after final integration           =   -362.188964163 Eh
Final COS-X integration done in                =     3.066 sec

----------------
TOTAL SCF ENERGY
----------------

Total Energy       :         -362.18896416 Eh           -9855.66277 eV

Components:
Nuclear Repulsion  :          303.98884524 Eh            8271.95702 eV
Electronic Energy  :         -666.17780941 Eh          -18127.61978 eV
One Electron Energy:        -1094.90587150 Eh          -29793.90346 eV
Two Electron Energy:          428.72806209 Eh           11666.28367 eV
Max COSX asymmetry :            0.00000090 Eh               0.00002 eV

Virial components:
Potential Energy   :         -721.52308156 Eh          -19633.64120 eV
Kinetic Energy     :          359.33411740 Eh            9777.97844 eV
Virial Ratio       :            2.00794483


DFT components:
N(Alpha)           :       28.000002771928 electrons
N(Beta)            :       28.000002771928 electrons
N(Total)           :       56.000005543857 electrons
E(X)               :      -26.147211826502 Eh       
E(C)               :       -2.442697218365 Eh       
E(XC)              :      -28.589909044867 Eh       
DFET-embed. en.    :        0.000000000000 Eh       

---------------
SCF CONVERGENCE
---------------

  Last Energy change         ...   -5.5597e-08  Tolerance :   1.0000e-08
  Last MAX-Density change    ...    7.7716e-16  Tolerance :   1.0000e-07
  Last RMS-Density change    ...    3.8511e-17  Tolerance :   5.0000e-09
  Last Orbital Gradient      ...    1.7129e-06  Tolerance :   1.0000e-05
  Last Orbital Rotation      ...    6.1354e-06  Tolerance :   1.0000e-05

             **** THE GBW FILE WAS UPDATED (pbeh-3c.gbw) ****
             **** DENSITY pbeh-3c.scfp WAS UPDATED ****
             **** ENERGY FILE WAS UPDATED (pbeh-3c.en.tmp) ****
             **** THE GBW FILE WAS UPDATED (pbeh-3c.gbw) ****
             **** DENSITY pbeh-3c.scfp WAS UPDATED ****
----------------
ORBITAL ENERGIES
----------------

  NO   OCC          E(Eh)            E(eV) 
   0   2.0000     -19.587338      -532.9986 
   1   2.0000     -19.553445      -532.0763 
   2   2.0000     -14.830515      -403.5588 
   3   2.0000     -10.499561      -285.7076 
   4   2.0000     -10.447756      -284.2979 
   5   2.0000     -10.446679      -284.2686 
   6   2.0000     -10.434306      -283.9319 
   7   2.0000      -1.338310       -36.4173 
   8   2.0000      -1.146793       -31.2058 
   9   2.0000      -0.898916       -24.4607 
  10   2.0000      -0.834635       -22.7116 
  11   2.0000      -0.766023       -20.8445 
  12   2.0000      -0.689193       -18.7539 
  13   2.0000      -0.663289       -18.0490 
  14   2.0000      -0.622282       -16.9332 
  15   2.0000      -0.575411       -15.6577 
  16   2.0000      -0.563247       -15.3267 
  17   2.0000      -0.536153       -14.5895 
  18   2.0000      -0.502222       -13.6662 
  19   2.0000      -0.485900       -13.2220 
  20   2.0000      -0.461496       -12.5580 
  21   2.0000      -0.446432       -12.1480 
  22   2.0000      -0.420351       -11.4383 
  23   2.0000      -0.408610       -11.1188 
  24   2.0000      -0.394960       -10.7474 
  25   2.0000      -0.383993       -10.4490 
  26   2.0000      -0.355952        -9.6859 
  27   2.0000      -0.337610        -9.1868 
  28   0.0000      -0.046988        -1.2786 
  29   0.0000       0.118193         3.2162 
  30   0.0000       0.131035         3.5656 
  31   0.0000       0.158610         4.3160 
  32   0.0000       0.165186         4.4949 
  33   0.0000       0.180865         4.9216 
  34   0.0000       0.188282         5.1234 
  35   0.0000       0.209361         5.6970 
  36   0.0000       0.220119         5.9898 
  37   0.0000       0.224462         6.1079 
  38   0.0000       0.235700         6.4137 
  39   0.0000       0.250557         6.8180 
  40   0.0000       0.261633         7.1194 
  41   0.0000       0.272380         7.4118 
  42   0.0000       0.293335         7.9821 
  43   0.0000       0.385760        10.4971 
  44   0.0000       0.472187        12.8489 
  45   0.0000       0.509904        13.8752 
  46   0.0000       0.529631        14.4120 
  47   0.0000       0.531856        14.4725 
  48   0.0000       0.549658        14.9570 
  49   0.0000       0.589284        16.0352 
  50   0.0000       0.626353        17.0439 
  51   0.0000       0.632041        17.1987 
  52   0.0000       0.670979        18.2583 
  53   0.0000       0.694286        18.8925 
  54   0.0000       0.723839        19.6967 
  55   0.0000       0.751182        20.4407 
  56   0.0000       0.755128        20.5481 
  57   0.0000       0.782563        21.2946 
  58   0.0000       0.811159        22.0728 
  59   0.0000       0.894207        24.3326 
  60   0.0000       0.930867        25.3302 
  61   0.0000       0.938913        25.5491 
  62   0.0000       0.974525        26.5182 
  63   0.0000       1.000352        27.2210 
  64   0.0000       1.011080        27.5129 
  65   0.0000       1.022183        27.8150 
  66   0.0000       1.036971        28.2174 
  67   0.0000       1.050189        28.5771 
  68   0.0000       1.055655        28.7258 
  69   0.0000       1.065856        29.0034 
  70   0.0000       1.080219        29.3943 
  71   0.0000       1.091976        29.7142 
  72   0.0000       1.165449        31.7135 
  73   0.0000       1.171649        31.8822 
  74   0.0000       1.203520        32.7494 
  75   0.0000       1.308553        35.6075 
  76   0.0000       1.337831        36.4042 
  77   0.0000       1.380846        37.5747 
  78   0.0000       1.428055        38.8594 
  79   0.0000       1.472010        40.0554 
  80   0.0000       1.508178        41.0396 
  81   0.0000       1.554971        42.3129 
  82   0.0000       1.591481        43.3064 
  83   0.0000       1.624496        44.2048 
  84   0.0000       1.725645        46.9572 
  85   0.0000       1.768426        48.1213 
  86   0.0000       1.806522        49.1580 
  87   0.0000       1.841733        50.1161 
  88   0.0000       1.852955        50.4215 
  89   0.0000       1.876385        51.0590 
  90   0.0000       1.923910        52.3523 
  91   0.0000       1.962572        53.4043 
  92   0.0000       1.972373        53.6710 
  93   0.0000       2.001488        54.4633 
  94   0.0000       2.040494        55.5247 
  95   0.0000       2.057272        55.9812 
  96   0.0000       2.085143        56.7396 
  97   0.0000       2.123264        57.7770 
  98   0.0000       2.152992        58.5859 
  99   0.0000       2.235735        60.8374 
 100   0.0000       2.286057        62.2068 
 101   0.0000       2.335263        63.5457 
 102   0.0000       2.367109        64.4123 
 103   0.0000       2.384700        64.8910 
 104   0.0000       2.475304        67.3565 
 105   0.0000       2.486369        67.6575 
 106   0.0000       2.507353        68.2285 
 107   0.0000       2.519643        68.5630 
 108   0.0000       2.568543        69.8936 
 109   0.0000       2.660227        72.3885 
 110   0.0000       2.695190        73.3398 
 111   0.0000       2.758590        75.0650 
 112   0.0000       2.821692        76.7822 
 113   0.0000       2.868913        78.0671 
 114   0.0000       2.973385        80.9099 
 115   0.0000       3.048668        82.9585 
 116   0.0000      13.550190       368.7194 
 117   0.0000      13.799789       375.5114 
 118   0.0000      13.937388       379.2556 
 119   0.0000      14.040248       382.0546 
 120   0.0000      18.852860       513.0124 
 121   0.0000      25.442145       692.3160 
 122   0.0000      25.635673       697.5821 

                    ********************************
                    * MULLIKEN POPULATION ANALYSIS *
                    ********************************

-----------------------
MULLIKEN ATOMIC CHARGES
-----------------------
   0 C :   -0.633613
   1 H :    0.213091
   2 H :    0.212514
   3 H :    0.222273
   4 C :   -0.421714
   5 H :    0.211275
   6 H :    0.207901
   7 C :   -0.431926
   8 H :    0.224017
   9 H :    0.219398
  10 C :   -0.177092
  11 H :    0.229927
  12 H :    0.221672
  13 O :   -0.395439
  14 N :    0.325501
  15 O :   -0.227786
Sum of atomic charges:   -0.0000000

--------------------------------
MULLIKEN REDUCED ORBITAL CHARGES
--------------------------------
  0 C s       :     3.382306  s :     3.382306
      pz      :     0.994979  p :     3.214648
      px      :     1.098935
      py      :     1.120734
      dz2     :     0.006331  d :     0.036659
      dxz     :     0.005366
      dyz     :     0.011559
      dx2y2   :     0.006739
      dxy     :     0.006664
  1 H s       :     0.786909  s :     0.786909
  2 H s       :     0.787486  s :     0.787486
  3 H s       :     0.777727  s :     0.777727
  4 C s       :     3.328344  s :     3.328344
      pz      :     0.973226  p :     3.049962
      px      :     1.048746
      py      :     1.027990
      dz2     :     0.007924  d :     0.043408
      dxz     :     0.006310
      dyz     :     0.012639
      dx2y2   :     0.010274
      dxy     :     0.006261
  5 H s       :     0.788725  s :     0.788725
  6 H s       :     0.792099  s :     0.792099
  7 C s       :     3.334603  s :     3.334603
      pz      :     0.952418  p :     3.055072
      px      :     1.056465
      py      :     1.046188
      dz2     :     0.008048  d :     0.042251
      dxz     :     0.006417
      dyz     :     0.011397
      dx2y2   :     0.010131
      dxy     :     0.006258
  8 H s       :     0.775983  s :     0.775983
  9 H s       :     0.780602  s :     0.780602
 10 C s       :     3.273721  s :     3.273721
      pz      :     0.936533  p :     2.841162
      px      :     0.997349
      py      :     0.907279
      dz2     :     0.011032  d :     0.062209
      dxz     :     0.008073
      dyz     :     0.018643
      dx2y2   :     0.012396
      dxy     :     0.012064
 11 H s       :     0.770073  s :     0.770073
 12 H s       :     0.778328  s :     0.778328
 13 O s       :     3.848482  s :     3.848482
      pz      :     1.474829  p :     4.512359
      px      :     1.441525
      py      :     1.596006
      dz2     :     0.004446  d :     0.034597
      dxz     :     0.008330
      dyz     :     0.007439
      dx2y2   :     0.006691
      dxy     :     0.007690
 14 N s       :     3.692510  s :     3.692510
      pz      :     0.891503  p :     2.874727
      px      :     0.896912
      py      :     1.086312
      dz2     :     0.014148  d :     0.107263
      dxz     :     0.014546
      dyz     :     0.026140
      dx2y2   :     0.026162
      dxy     :     0.026266
 15 O s       :     3.811691  s :     3.811691
      pz      :     1.534100  p :     4.369437
      px      :     1.544051
      py      :     1.291286
      dz2     :     0.005184  d :     0.046658
      dxz     :     0.000602
      dyz     :     0.013343
      dx2y2   :     0.014111
      dxy     :     0.013418


                     *******************************
                     * LOEWDIN POPULATION ANALYSIS *
                     *******************************

----------------------
LOEWDIN ATOMIC CHARGES
----------------------
   0 C :   -0.359800
   1 H :    0.125957
   2 H :    0.125653
   3 H :    0.128881
   4 C :   -0.246358
   5 H :    0.122438
   6 H :    0.121165
   7 C :   -0.256397
   8 H :    0.130414
   9 H :    0.128614
  10 C :   -0.118524
  11 H :    0.130274
  12 H :    0.121770
  13 O :   -0.201971
  14 N :    0.151971
  15 O :   -0.104088

-------------------------------
LOEWDIN REDUCED ORBITAL CHARGES
-------------------------------
  0 C s       :     2.957793  s :     2.957793
      pz      :     1.082295  p :     3.333979
      px      :     1.123887
      py      :     1.127796
      dz2     :     0.013266  d :     0.068027
      dxz     :     0.011203
      dyz     :     0.021114
      dx2y2   :     0.011285
      dxy     :     0.011159
  1 H s       :     0.874043  s :     0.874043
  2 H s       :     0.874347  s :     0.874347
  3 H s       :     0.871119  s :     0.871119
  4 C s       :     2.915304  s :     2.915304
      pz      :     1.066967  p :     3.243379
      px      :     1.093917
      py      :     1.082495
      dz2     :     0.016839  d :     0.087675
      dxz     :     0.014052
      dyz     :     0.025186
      dx2y2   :     0.018940
      dxy     :     0.012659
  5 H s       :     0.877562  s :     0.877562
  6 H s       :     0.878835  s :     0.878835
  7 C s       :     2.923549  s :     2.923549
      pz      :     1.056342  p :     3.246598
      px      :     1.099664
      py      :     1.090592
      dz2     :     0.017496  d :     0.086250
      dxz     :     0.014518
      dyz     :     0.022920
      dx2y2   :     0.018470
      dxy     :     0.012847
  8 H s       :     0.869586  s :     0.869586
  9 H s       :     0.871386  s :     0.871386
 10 C s       :     2.926677  s :     2.926677
      pz      :     1.034709  p :     3.060622
      px      :     1.046655
      py      :     0.979258
      dz2     :     0.024091  d :     0.131224
      dxz     :     0.017814
      dyz     :     0.038903
      dx2y2   :     0.024984
      dxy     :     0.025432
 11 H s       :     0.869726  s :     0.869726
 12 H s       :     0.878230  s :     0.878230
 13 O s       :     3.547242  s :     3.547242
      pz      :     1.491692  p :     4.579712
      px      :     1.475916
      py      :     1.612104
      dz2     :     0.009297  d :     0.075016
      dxz     :     0.023641
      dyz     :     0.013535
      dx2y2   :     0.014405
      dxy     :     0.014139
 14 N s       :     3.418391  s :     3.418391
      pz      :     0.943652  p :     3.191339
      px      :     0.956538
      py      :     1.291149
      dz2     :     0.029758  d :     0.238299
      dxz     :     0.034833
      dyz     :     0.056956
      dx2y2   :     0.058847
      dxy     :     0.057904
 15 O s       :     3.570365  s :     3.570365
      pz      :     1.507076  p :     4.444484
      px      :     1.515449
      py      :     1.421959
      dz2     :     0.011436  d :     0.089239
      dxz     :     0.001113
      dyz     :     0.021884
      dx2y2   :     0.032424
      dxy     :     0.022383


                      *****************************
                      * MAYER POPULATION ANALYSIS *
                      *****************************

  NA   - Mulliken gross atomic population
  ZA   - Total nuclear charge
  QA   - Mulliken gross atomic charge
  VA   - Mayer's total valence
  BVA  - Mayer's bonded valence
  FA   - Mayer's free valence

  ATOM       NA         ZA         QA         VA         BVA        FA
  0 C      6.6336     6.0000    -0.6336     3.7392     3.7392     0.0000
  1 H      0.7869     1.0000     0.2131     0.9141     0.9141    -0.0000
  2 H      0.7875     1.0000     0.2125     0.9143     0.9143    -0.0000
  3 H      0.7777     1.0000     0.2223     0.9131     0.9131     0.0000
  4 C      6.4217     6.0000    -0.4217     3.7392     3.7392     0.0000
  5 H      0.7887     1.0000     0.2113     0.9066     0.9066     0.0000
  6 H      0.7921     1.0000     0.2079     0.9079     0.9079    -0.0000
  7 C      6.4319     6.0000    -0.4319     3.7178     3.7178    -0.0000
  8 H      0.7760     1.0000     0.2240     0.9056     0.9056     0.0000
  9 H      0.7806     1.0000     0.2194     0.9103     0.9103    -0.0000
 10 C      6.1771     6.0000    -0.1771     3.6863     3.6863    -0.0000
 11 H      0.7701     1.0000     0.2299     0.9065     0.9065    -0.0000
 12 H      0.7783     1.0000     0.2217     0.9167     0.9167    -0.0000
 13 O      8.3954     8.0000    -0.3954     2.1094     2.1094    -0.0000
 14 N      6.6745     7.0000     0.3255     3.0104     3.0104     0.0000
 15 O      8.2278     8.0000    -0.2278     2.1942     2.1942     0.0000

  Mayer bond orders larger than 0.100000
B(  0-C ,  1-H ) :   0.9278 B(  0-C ,  2-H ) :   0.9280 B(  0-C ,  3-H ) :   0.9303 
B(  0-C ,  4-C ) :   0.9942 B(  4-C ,  5-H ) :   0.9172 B(  4-C ,  6-H ) :   0.9181 
B(  4-C ,  7-C ) :   0.9692 B(  7-C ,  8-H ) :   0.9127 B(  7-C ,  9-H ) :   0.9138 
B(  7-C , 10-C ) :   0.9724 B( 10-C , 11-H ) :   0.9090 B( 10-C , 12-H ) :   0.8925 
B( 10-C , 13-O ) :   0.8956 B( 13-O , 14-N ) :   1.0169 B( 13-O , 15-O ) :   0.1774 
B( 14-N , 15-O ) :   1.9484 

-------
TIMINGS
-------

Total SCF time: 0 days 0 hours 1 min 38 sec 

Total time                  ....      98.716 sec
Sum of individual times     ....      90.823 sec  ( 92.0%)

Fock matrix formation       ....      74.443 sec  ( 75.4%)
  Split-RI-J                ....       9.267 sec  ( 12.4% of F)
  Chain of spheres X        ....      28.330 sec  ( 38.1% of F)
  XC integration            ....      21.363 sec  ( 28.7% of F)
    Basis function eval.    ....       3.682 sec  ( 17.2% of XC)
    Density eval.           ....       1.840 sec  (  8.6% of XC)
    XC-Functional eval.     ....       1.444 sec  (  6.8% of XC)
    XC-Potential eval.      ....       1.298 sec  (  6.1% of XC)
Diagonalization             ....       1.207 sec  (  1.2%)
Density matrix formation    ....       0.143 sec  (  0.1%)
Population analysis         ....       0.071 sec  (  0.1%)
Initial guess               ....       0.084 sec  (  0.1%)
Orbital Transformation      ....       0.000 sec  (  0.0%)
Orbital Orthonormalization  ....       0.000 sec  (  0.0%)
DIIS solution               ....       3.067 sec  (  3.1%)
SOSCF solution              ....       1.871 sec  (  1.9%)
Grid generation             ....       9.936 sec  ( 10.1%)

Maximum memory used throughout the entire SCF-calculation: 53.7 MB


-------------------------------------------------------------------------------
                          DFT DISPERSION CORRECTION                            
                                                                               
                              DFTD3 V3.1  Rev 1                                
                          USING Becke-Johnson damping                          
-------------------------------------------------------------------------------
The PBEh-3c composite method is recognized
Using three-body term ABC
Active option DFTDOPT                   ...         4   

molecular C6(AA) [au] = 1934.876402 


            DFT-D V3
 parameters
 s6 scaling factor         :     1.0000 
 a1 scaling factor         :     0.4860 
 s8 scaling factor         :     0.0000 
 a2 scaling factor         :     4.5000 
 Damping factor alpha9(ATM):    16.0000 
 ad hoc parameters k1-k3   :    16.0000     1.3333    -4.0000 

 Edisp/kcal,au: -4.249512590932  -0.006772028652 
 E6   /kcal   :  -4.260885628 
 E8   /kcal   :  -0.000000000 
 E6(ABC)      :   0.011373037 
 % E8         :   0.000000000 
 % E6(ABC)    :  -0.267631559 

-------------------------   ----------------
Dispersion correction           -0.006772029
-------------------------   ----------------

------------------   -----------------
gCP correction             0.033250610
------------------   -----------------

-------------------------   --------------------
FINAL SINGLE POINT ENERGY      -362.162485581992
-------------------------   --------------------


                            ***************************************
                            *     ORCA property calculations      *
                            ***************************************

                                    ---------------------
                                    Active property flags
                                    ---------------------
   (+) Dipole Moment


------------------------------------------------------------------------------
                       ORCA ELECTRIC PROPERTIES CALCULATION
------------------------------------------------------------------------------

Dipole Moment Calculation                       ... on
Quadrupole Moment Calculation                   ... off
Polarizability Calculation                      ... off
GBWName                                         ... pbeh-3c.gbw
Electron density                                ... pbeh-3c.scfp
The origin for moment calculation is the CENTER OF MASS  = ( 0.583875, -0.809332  1.713427)

-------------
DIPOLE MOMENT
-------------
                                X             Y             Z
Electronic contribution:      4.11426      -5.95368      12.81823
Nuclear contribution   :     -4.54195       6.39106     -13.37470
                        -----------------------------------------
Total Dipole Moment    :     -0.42769       0.43738      -0.55647
                        -----------------------------------------
Magnitude (a.u.)       :      0.82697
Magnitude (Debye)      :      2.10199



--------------------
Rotational spectrum 
--------------------
 
Rotational constants in cm-1:     0.225650     0.036272     0.034069 
Rotational constants in MHz :  6764.821587  1087.417468  1021.376569 

 Dipole components along the rotational axes: 
x,y,z [a.u.] :    -0.768966     0.043967    -0.301059 
x,y,z [Debye]:    -1.954556     0.111755    -0.765231 

 

Timings for individual modules:

Sum of individual times         ...      103.047 sec (=   1.717 min)
GTO integral calculation        ...        3.368 sec (=   0.056 min)   3.3 %
SCF iterations                  ...       99.679 sec (=   1.661 min)  96.7 %
                             ****ORCA TERMINATED NORMALLY****
TOTAL RUN TIME: 0 days 0 hours 1 minutes 46 seconds 716 msec
