
                                 *****************
                                 * O   R   C   A *
                                 *****************

                                            #,                                       
                                            ###                                      
                                            ####                                     
                                            #####                                    
                                            ######                                   
                                           ########,                                 
                                     ,,################,,,,,                         
                               ,,#################################,,                 
                          ,,##########################################,,             
                       ,#########################################, ''#####,          
                    ,#############################################,,   '####,        
                  ,##################################################,,,,####,       
                ,###########''''           ''''###############################       
              ,#####''   ,,,,##########,,,,          '''####'''          '####       
            ,##' ,,,,###########################,,,                        '##       
           ' ,,###''''                  '''############,,,                           
         ,,##''                                '''############,,,,        ,,,,,,###''
      ,#''                                            '''#######################'''  
     '                                                          ''''####''''         
             ,#######,   #######,   ,#######,      ##                                
            ,#'     '#,  ##    ##  ,#'     '#,    #''#        ######   ,####,        
            ##       ##  ##   ,#'  ##            #'  '#       #        #'  '#        
            ##       ##  #######   ##           ,######,      #####,   #    #        
            '#,     ,#'  ##    ##  '#,     ,#' ,#      #,         ##   #,  ,#        
             '#######'   ##     ##  '#######'  #'      '#     #####' # '####'        



                  #######################################################
                  #                        -***-                        #
                  #          Department of theory and spectroscopy      #
                  #    Directorship and core code : Frank Neese         #
                  #        Max Planck Institute fuer Kohlenforschung    #
                  #                Kaiser Wilhelm Platz 1               #
                  #                 D-45470 Muelheim/Ruhr               #
                  #                      Germany                        #
                  #                                                     #
                  #                  All rights reserved                #
                  #                        -***-                        #
                  #######################################################


                         Program Version 5.0.3 -  RELEASE  -


 With contributions from (in alphabetic order):
   Daniel Aravena         : Magnetic Suceptibility
   Michael Atanasov       : Ab Initio Ligand Field Theory (pilot matlab implementation)
   Alexander A. Auer      : GIAO ZORA, VPT2 properties, NMR spectrum
   Ute Becker             : Parallelization
   Giovanni Bistoni       : ED, misc. LED, open-shell LED, HFLD
   Martin Brehm           : Molecular dynamics
   Dmytro Bykov           : SCF Hessian
   Vijay G. Chilkuri      : MRCI spin determinant printing, contributions to CSF-ICE
   Dipayan Datta          : RHF DLPNO-CCSD density
   Achintya Kumar Dutta   : EOM-CC, STEOM-CC
   Dmitry Ganyushin       : Spin-Orbit,Spin-Spin,Magnetic field MRCI
   Miquel Garcia          : C-PCM and meta-GGA Hessian, CC/C-PCM, Gaussian charge scheme
   Yang Guo               : DLPNO-NEVPT2, F12-NEVPT2, CIM, IAO-localization
   Andreas Hansen         : Spin unrestricted coupled pair/coupled cluster methods
   Benjamin Helmich-Paris : MC-RPA, TRAH-SCF, COSX integrals
   Lee Huntington         : MR-EOM, pCC
   Robert Izsak           : Overlap fitted RIJCOSX, COSX-SCS-MP3, EOM
   Marcus Kettner         : VPT2
   Christian Kollmar      : KDIIS, OOCD, Brueckner-CCSD(T), CCSD density, CASPT2, CASPT2-K
   Simone Kossmann        : Meta GGA functionals, TD-DFT gradient, OOMP2, MP2 Hessian
   Martin Krupicka        : Initial AUTO-CI
   Lucas Lang             : DCDCAS
   Marvin Lechner         : AUTO-CI (C++ implementation), FIC-MRCC
   Dagmar Lenk            : GEPOL surface, SMD
   Dimitrios Liakos       : Extrapolation schemes; Compound Job, initial MDCI parallelization
   Dimitrios Manganas     : Further ROCIS development; embedding schemes
   Dimitrios Pantazis     : SARC Basis sets
   Anastasios Papadopoulos: AUTO-CI, single reference methods and gradients
   Taras Petrenko         : DFT Hessian,TD-DFT gradient, ASA, ECA, R-Raman, ABS, FL, XAS/XES, NRVS
   Peter Pinski           : DLPNO-MP2, DLPNO-MP2 Gradient
   Christoph Reimann      : Effective Core Potentials
   Marius Retegan         : Local ZFS, SOC
   Christoph Riplinger    : Optimizer, TS searches, QM/MM, DLPNO-CCSD(T), (RO)-DLPNO pert. Triples
   Tobias Risthaus        : Range-separated hybrids, TD-DFT gradient, RPA, STAB
   Michael Roemelt        : Original ROCIS implementation
   Masaaki Saitow         : Open-shell DLPNO-CCSD energy and density
   Barbara Sandhoefer     : DKH picture change effects
   Avijit Sen             : IP-ROCIS
   Kantharuban Sivalingam : CASSCF convergence, NEVPT2, FIC-MRCI
   Bernardo de Souza      : ESD, SOC TD-DFT
   Georgi Stoychev        : AutoAux, RI-MP2 NMR, DLPNO-MP2 response
   Willem Van den Heuvel  : Paramagnetic NMR
   Boris Wezisla          : Elementary symmetry handling
   Frank Wennmohs         : Technical directorship


 We gratefully acknowledge several colleagues who have allowed us to
 interface, adapt or use parts of their codes:
   Stefan Grimme, W. Hujo, H. Kruse, P. Pracht,  : VdW corrections, initial TS optimization,
                  C. Bannwarth, S. Ehlert          DFT functionals, gCP, sTDA/sTD-DF
   Ed Valeev, F. Pavosevic, A. Kumar             : LibInt (2-el integral package), F12 methods
   Garnet Chan, S. Sharma, J. Yang, R. Olivares  : DMRG
   Ulf Ekstrom                                   : XCFun DFT Library
   Mihaly Kallay                                 : mrcc  (arbitrary order and MRCC methods)
   Jiri Pittner, Ondrej Demel                    : Mk-CCSD
   Frank Weinhold                                : gennbo (NPA and NBO analysis)
   Christopher J. Cramer and Donald G. Truhlar   : smd solvation model
   Lars Goerigk                                  : TD-DFT with DH, B97 family of functionals
   V. Asgeirsson, H. Jonsson                     : NEB implementation
   FAccTs GmbH                                   : IRC, NEB, NEB-TS, DLPNO-Multilevel, CI-OPT
                                                   MM, QMMM, 2- and 3-layer-ONIOM, Crystal-QMMM,
                                                   LR-CPCM, SF, NACMEs, symmetry and pop. for TD-DFT,
                                                   nearIR, NL-DFT gradient (VV10), updates on ESD,
                                                   ML-optimized integration grids
   S Lehtola, MJT Oliveira, MAL Marques          : LibXC Library
   Liviu Ungur et al                             : ANISO software


 Your calculation uses the libint2 library for the computation of 2-el integrals
 For citations please refer to: http://libint.valeyev.net

 Your ORCA version has been built with support for libXC version: 5.1.0
 For citations please refer to: https://tddft.org/programs/libxc/

 This ORCA versions uses:
   CBLAS   interface :  Fast vector & matrix operations
   LAPACKE interface :  Fast linear algebra routines
   SCALAPACK package :  Parallel linear algebra routines
   Shared memory     :  Shared parallel matrices
   BLAS/LAPACK       :  OpenBLAS 0.3.15  USE64BITINT DYNAMIC_ARCH NO_AFFINITY Haswell SINGLE_THREADED
        Core in use  :  Haswell
   Copyright (c) 2011-2014, The OpenBLAS Project




***************************************
The coordinates will be read from file: Ether_TS.xyz
***************************************


Your calculation utilizes the geometrical counterpoise correction gCP
Please cite in your paper:
H.Kruse, S. Grimme J.Chem.Phys., 136, (2012), 154101 
   

Your calculation utilizes the atom-pairwise dispersion correction
with the Becke-Johnson damping scheme (D3BJ)
Cite in your paper:
S.Grimme, S.Ehrlich, L.Goerigk, J Comput Chem, (2011), 32, 1456–1465 
S.Grimme, J.Antony, S.Ehrlich and H.Krieg, J.Chem.Phys., 132, (2010), 154104 
   

Your calculation employs the composite approach PBEh-3c.
Please cite in your paper:
S. Grimme, J. G. Brandenburg, C. Bannwarth, A. Hansen J.Chem.Phys., 143, (2015), 054107 
   

================================================================================

----- Orbital basis set information -----
Your calculation utilizes the basis: def2-mSVP

----- AuxJ basis set information -----
Your calculation utilizes the auxiliary basis: def2/J
   F. Weigend, Phys. Chem. Chem. Phys. 8, 1057 (2006).

================================================================================
                                        WARNINGS
                       Please study these warnings very carefully!
================================================================================


INFO   : the flag for use of the SHARK integral package has been found!

================================================================================
                                       INPUT FILE
================================================================================
NAME = pbeh-3c.inp
|  1> ! PBEh-3c def2/J TightSCF DefGrid3
|  2> 
|  3> %maxcore 60000
|  4> 
|  5> %pal
|  6> nprocs 4
|  7> end
|  8> 
|  9> *xyzfile 0 1 Ether_TS.xyz
| 10> 
| 11>                          ****END OF INPUT****
================================================================================

                       ****************************
                       * Single Point Calculation *
                       ****************************

---------------------------------
CARTESIAN COORDINATES (ANGSTROEM)
---------------------------------
  O     -0.000209    0.000338    0.010096
  C      1.374975    0.000005    0.010337
  C     -1.375215    0.000681    0.009783
  H      1.766623    0.406908   -0.931081
  H      1.766470    0.613794    0.829919
  H      1.771333   -1.016633    0.130373
  H     -1.768777   -1.018022    0.120524
  H     -1.767663    0.605368    0.835796
  H     -1.768183    0.416173   -0.927336

----------------------------
CARTESIAN COORDINATES (A.U.)
----------------------------
  NO LB      ZA    FRAG     MASS         X           Y           Z
   0 O     8.0000    0    15.999   -0.000396    0.000639    0.019078
   1 C     6.0000    0    12.011    2.598326    0.000010    0.019534
   2 C     6.0000    0    12.011   -2.598780    0.001288    0.018488
   3 H     1.0000    0     1.008    3.338433    0.768944   -1.759488
   4 H     1.0000    0     1.008    3.338144    1.159903    1.568320
   5 H     1.0000    0     1.008    3.347335   -1.921158    0.246370
   6 H     1.0000    0     1.008   -3.342503   -1.923783    0.227758
   7 H     1.0000    0     1.008   -3.340399    1.143980    1.579425
   8 H     1.0000    0     1.008   -3.341382    0.786453   -1.752411

--------------------------------
INTERNAL COORDINATES (ANGSTROEM)
--------------------------------
 O      0   0   0     0.000000000000     0.00000000     0.00000000
 C      1   0   0     1.375184561367     0.00000000     0.00000000
 C      1   2   0     1.375005878417   179.99699637     0.00000000
 H      2   1   3     1.097827758171   110.88589080    14.56585199
 H      2   1   3     1.096229966140   110.92368448   134.35117457
 H      2   1   3     1.097753134837   111.18043814   254.45683005
 H      3   1   2     1.097684216345   110.99478800   105.02107511
 H      3   1   2     1.096338455737   110.97305659   225.01138375
 H      3   1   2     1.097838751043   110.99185147   344.90445499

---------------------------
INTERNAL COORDINATES (A.U.)
---------------------------
 O      0   0   0     0.000000000000     0.00000000     0.00000000
 C      1   0   0     2.598722204580     0.00000000     0.00000000
 C      1   2   0     2.598384542741   179.99699637     0.00000000
 H      2   1   3     2.074593805160   110.88589080    14.56585199
 H      2   1   3     2.071574415803   110.92368448   134.35117457
 H      2   1   3     2.074452787496   111.18043814   254.45683005
 H      3   1   2     2.074322550421   110.99478800   105.02107511
 H      3   1   2     2.071779431429   110.97305659   225.01138375
 H      3   1   2     2.074614578678   110.99185147   344.90445499

---------------------
BASIS SET INFORMATION
---------------------
There are 3 groups of distinct atoms

 Group   1 Type O   : 8s4p1d contracted to 4s2p1d pattern {5111/31/1}
 Group   2 Type C   : 8s4p1d contracted to 4s2p1d pattern {5111/31/1}
 Group   3 Type H   : 4s contracted to 2s pattern {31}

Atom   0O    basis set group =>   1
Atom   1C    basis set group =>   2
Atom   2C    basis set group =>   2
Atom   3H    basis set group =>   3
Atom   4H    basis set group =>   3
Atom   5H    basis set group =>   3
Atom   6H    basis set group =>   3
Atom   7H    basis set group =>   3
Atom   8H    basis set group =>   3
---------------------------------
AUXILIARY/J BASIS SET INFORMATION
---------------------------------
There are 3 groups of distinct atoms

 Group   1 Type O   : 12s5p4d2f1g contracted to 6s4p3d1f1g pattern {711111/2111/211/2/1}
 Group   2 Type C   : 12s5p4d2f1g contracted to 6s4p3d1f1g pattern {711111/2111/211/2/1}
 Group   3 Type H   : 5s2p1d contracted to 3s1p1d pattern {311/2/1}

Atom   0O    basis set group =>   1
Atom   1C    basis set group =>   2
Atom   2C    basis set group =>   2
Atom   3H    basis set group =>   3
Atom   4H    basis set group =>   3
Atom   5H    basis set group =>   3
Atom   6H    basis set group =>   3
Atom   7H    basis set group =>   3
Atom   8H    basis set group =>   3


           ************************************************************
           *        Program running with 4 parallel MPI-processes     *
           *              working on a common directory               *
           ************************************************************
------------------------------------------------------------------------------
                           ORCA GTO INTEGRAL CALCULATION
                           -- RI-GTO INTEGRALS CHOSEN --
------------------------------------------------------------------------------
------------------------------------------------------------------------------
                   ___                                                        
                  /   \      - P O W E R E D   B Y -                         
                 /     \                                                     
                 |  |  |   _    _      __       _____    __    __             
                 |  |  |  | |  | |    /  \     |  _  \  |  |  /  |          
                  \  \/   | |  | |   /    \    | | | |  |  | /  /          
                 / \  \   | |__| |  /  /\  \   | |_| |  |  |/  /          
                |  |  |   |  __  | /  /__\  \  |    /   |      \           
                |  |  |   | |  | | |   __   |  |    \   |  |\   \          
                \     /   | |  | | |  |  |  |  | |\  \  |  | \   \       
                 \___/    |_|  |_| |__|  |__|  |_| \__\ |__|  \__/        
                                                                              
                      - O R C A' S   B I G   F R I E N D -                    
                                      &                                       
                       - I N T E G R A L  F E E D E R -                       
                                                                              
 v1 FN, 2020, v2 2021                                                         
------------------------------------------------------------------------------


Reading SHARK input file pbeh-3c.SHARKINP.tmp ... ok
----------------------
SHARK INTEGRAL PACKAGE
----------------------

Number of atoms                             ...      9
Number of basis functions                   ...     57
Number of shells                            ...     33
Maximum angular momentum                    ...      2
Integral batch strategy                     ... SHARK/LIBINT Hybrid
RI-J (if used) integral strategy            ... SPLIT-RIJ (Revised 2003 algorithm where possible)
Printlevel                                  ...      1
Contraction scheme used                     ... SEGMENTED contraction
Coulomb Range Separation                    ... NOT USED
Exchange Range Separation                   ... NOT USED
Finite Nucleus Model                        ... NOT USED
Auxiliary Coulomb fitting basis             ... AVAILABLE
   # of basis functions in Aux-J            ...    213
   # of shells in Aux-J                     ...     75
   Maximum angular momentum in Aux-J        ...      4
Auxiliary J/K fitting basis                 ... NOT available
Auxiliary Correlation fitting basis         ... NOT available
Auxiliary 'external' fitting basis          ... NOT available
Integral threshold                          ...     2.500000e-11
Primitive cut-off                           ...     2.500000e-12
Primitive pair pre-selection threshold      ...     2.500000e-12

Calculating pre-screening integrals         ... done (  0.1 sec) Dimension = 33
Organizing shell pair data                  ... done (  0.1 sec)
Shell pair information
Total number of shell pairs                 ...       561
Shell pairs after pre-screening             ...       553
Total number of primitive shell pairs       ...      2073
Primitive shell pairs kept                  ...      1622
          la=0 lb=0:    292 shell pairs
          la=1 lb=0:    144 shell pairs
          la=1 lb=1:     21 shell pairs
          la=2 lb=0:     72 shell pairs
          la=2 lb=1:     18 shell pairs
          la=2 lb=2:      6 shell pairs

Calculating one electron integrals          ... done (  0.2 sec)
Calculating RI/J V-Matrix + Cholesky decomp.... done (  0.0 sec)
Calculating Nuclear repulsion               ... done (  0.0 sec) ENN=     82.465000408761 Eh

SHARK setup successfully completed in   0.9 seconds

Maximum memory used throughout the entire GTOINT-calculation: 9.3 MB


           ************************************************************
           *        Program running with 4 parallel MPI-processes     *
           *              working on a common directory               *
           ************************************************************
-------------------------------------------------------------------------------
                                 ORCA SCF
-------------------------------------------------------------------------------

------------
SCF SETTINGS
------------
Hamiltonian:
 Density Functional     Method          .... DFT(GTOs)
 Exchange Functional    Exchange        .... PBE
   PBE kappa parameter   XKappa         ....  1.024500
   PBE mue parameter    XMuePBE         ....  0.123457
 Correlation Functional Correlation     .... PBE
   PBE beta parameter  CBetaPBE         ....  0.030000
 LDA part of GGA corr.  LDAOpt          .... PW91-LDA
 Gradients option       PostSCFGGA      .... off
 Hybrid DFT is turned on
   Fraction HF Exchange ScalHFX         ....  0.420000
   Scaling of DF-GGA-X  ScalDFX         ....  0.580000
   Scaling of DF-GGA-C  ScalDFC         ....  1.000000
   Scaling of DF-LDA-C  ScalLDAC        ....  1.000000
   Perturbative correction              ....  0.000000
   Density functional embedding theory  .... OFF
 RI-approximation to the Coulomb term is turned on
   Number of AuxJ basis functions       .... 213
   RIJ-ON(X) (HFX calculated with O(N)) .... on
   Number of AuxJ basis functions       .... 213
   RIJ-COSX (HFX calculated with COS-X)).... on


General Settings:
 Integral files         IntName         .... pbeh-3c
 Hartree-Fock type      HFTyp           .... RHF
 Total Charge           Charge          ....    0
 Multiplicity           Mult            ....    1
 Number of Electrons    NEL             ....   26
 Basis Dimension        Dim             ....   57
 Nuclear Repulsion      ENuc            ....     82.4650004088 Eh

Convergence Acceleration:
 DIIS                   CNVDIIS         .... on
   Start iteration      DIISMaxIt       ....    12
   Startup error        DIISStart       ....  0.200000
   # of expansion vecs  DIISMaxEq       ....     5
   Bias factor          DIISBfac        ....   1.050
   Max. coefficient     DIISMaxC        ....  10.000
 Trust-Rad. Augm. Hess. CNVTRAH         .... auto
   Auto Start mean grad. ratio tolernc. ....  1.125000
   Auto Start start iteration           ....    20
   Auto Start num. interpolation iter.  ....    10
   Max. Number of Micro iterations      ....    16
   Max. Number of Macro iterations      .... Maxiter - #DIIS iter
   Number of Davidson start vectors     ....     2
   Converg. threshold I  (grad. norm)   ....   1.000e-05
   Converg. threshold II (energy diff.) ....   1.000e-08
   Grad. Scal. Fac. for Micro threshold ....   0.100
   Minimum threshold for Micro iter.    ....   0.010
   NR start threshold (gradient norm)   ....   0.001
   Initial trust radius                 ....   0.400
   Minimum AH scaling param. (alpha)    ....   1.000
   Maximum AH scaling param. (alpha)    .... 1000.000
   Orbital update algorithm             .... Taylor
   White noise on init. David. guess    .... on
   Maximum white noise                  ....   0.010
   Quad. conv. algorithm                .... NR
   COSX micro iterations for RIJONX calc.... off
 SOSCF                  CNVSOSCF        .... on
   Start iteration      SOSCFMaxIt      ....   150
   Startup grad/error   SOSCFStart      ....  0.003300
 Level Shifting         CNVShift        .... on
   Level shift para.    LevelShift      ....    0.2500
   Turn off err/grad.   ShiftErr        ....    0.0010
 Zerner damping         CNVZerner       .... off
 Static damping         CNVDamp         .... on
   Fraction old density DampFac         ....    0.7000
   Max. Damping (<1)    DampMax         ....    0.9800
   Min. Damping (>=0)   DampMin         ....    0.0000
   Turn off err/grad.   DampErr         ....    0.1000
 Fernandez-Rico         CNVRico         .... off

SCF Procedure:
 Maximum # iterations   MaxIter         ....   125
 SCF integral mode      SCFMode         .... Direct
   Integral package                     .... SHARK and LIBINT hybrid scheme
 Reset frequency        DirectResetFreq ....    20
 Integral Threshold     Thresh          ....  2.500e-11 Eh
 Primitive CutOff       TCut            ....  2.500e-12 Eh

Convergence Tolerance:
 Convergence Check Mode ConvCheckMode   .... Total+1el-Energy
 Convergence forced     ConvForced      .... 0
 Energy Change          TolE            ....  1.000e-08 Eh
 1-El. energy change                    ....  1.000e-05 Eh
 Orbital Gradient       TolG            ....  1.000e-05
 Orbital Rotation angle TolX            ....  1.000e-05
 DIIS Error             TolErr          ....  5.000e-07


Diagonalization of the overlap matrix:
Smallest eigenvalue                        ... 1.267e-02
Time for diagonalization                   ...    0.001 sec
Threshold for overlap eigenvalues          ... 1.000e-08
Number of eigenvalues below threshold      ... 0
Time for construction of square roots      ...    0.002 sec
Total time needed                          ...    0.004 sec

--------------------------------
INITIAL GUESS: MINIMAL BASIS EHT
--------------------------------
The minimal basis has 21 functions
EHT matrix was diagonalized
Basis set overlap was calculated now projecting the orbitals
Using GuessMode=FMatrix for the initial guess
C*T matrix was formed
Effective Fockian was calculated
Effective Fockian was diagonalized
Initial density was built
                      ------------------
                      INITIAL GUESS DONE
                      ------------------
-------------------
DFT GRID GENERATION
-------------------

General Integration Accuracy     IntAcc      ... 4.959
Radial Grid Type                 RadialGrid  ... OptM3 with GC (2021)
Angular Grid (max. ang.)         AngularGrid ... 6 (Lebedev-590)
Angular grid pruning method      GridPruning ... 4 (adaptive)
Weight generation scheme         WeightScheme... Becke
Basis function cutoff            BFCut       ... 1.0000e-11
Integration weight cutoff        WCut        ... 1.0000e-14
Angular grids for H and He will be reduced by one unit
Partially contracted basis set               ... off
Rotationally invariant grid construction     ... off

Total number of grid points                  ...    96819
Total number of batches                      ...     1518
Average number of points per batch           ...       63
Average number of grid points per atom       ...    10758
Time for grid setup =    3.618 sec

--------------------
COSX GRID GENERATION
--------------------

GRIDX 1
-------
General Integration Accuracy     IntAcc      ... 4.020
Radial Grid Type                 RadialGrid  ... OptM3 with GC (2021)
Angular Grid (max. ang.)         AngularGrid ... 2 (Lebedev-110)
Angular grid pruning method      GridPruning ... 4 (adaptive)
Weight generation scheme         WeightScheme... Becke
Basis function cutoff            BFCut       ... 1.0000e-11
Integration weight cutoff        WCut        ... 1.0000e-14
Angular grids for H and He will be reduced by one unit
Partially contracted basis set               ... on
Rotationally invariant grid construction     ... off

Total number of grid points                  ...    10252
Total number of batches                      ...      165
Average number of points per batch           ...       62
Average number of grid points per atom       ...     1139
UseSFitting                                  ... on

GRIDX 2
-------
General Integration Accuracy     IntAcc      ... 4.338
Radial Grid Type                 RadialGrid  ... OptM3 with GC (2021)
Angular Grid (max. ang.)         AngularGrid ... 3 (Lebedev-194)
Angular grid pruning method      GridPruning ... 4 (adaptive)
Weight generation scheme         WeightScheme... Becke
Basis function cutoff            BFCut       ... 1.0000e-11
Integration weight cutoff        WCut        ... 1.0000e-14
Angular grids for H and He will be reduced by one unit
Partially contracted basis set               ... on
Rotationally invariant grid construction     ... off

Total number of grid points                  ...    22540
Total number of batches                      ...      358
Average number of points per batch           ...       62
Average number of grid points per atom       ...     2504
UseSFitting                                  ... on

GRIDX 3
-------
General Integration Accuracy     IntAcc      ... 4.871
Radial Grid Type                 RadialGrid  ... OptM3 with GC (2021)
Angular Grid (max. ang.)         AngularGrid ... 4 (Lebedev-302)
Angular grid pruning method      GridPruning ... 4 (adaptive)
Weight generation scheme         WeightScheme... Becke
Basis function cutoff            BFCut       ... 1.0000e-11
Integration weight cutoff        WCut        ... 1.0000e-14
Angular grids for H and He will be reduced by one unit
Partially contracted basis set               ... on
Rotationally invariant grid construction     ... off

Total number of grid points                  ...    45260
Total number of batches                      ...      711
Average number of points per batch           ...       63
Average number of grid points per atom       ...     5029
UseSFitting                                  ... on

Time for X-Grid setup             =    1.472 sec

--------------
SCF ITERATIONS
--------------
ITER       Energy         Delta-E        Max-DP      RMS-DP      [F,P]     Damp
               ***  Starting incremental Fock matrix formation  ***
  0   -154.2464815587   0.000000000000 0.16177353  0.00766612  0.4436916 0.7000
  1   -154.3857496672  -0.139268108488 0.08796522  0.00472560  0.2722444 0.7000
                               ***Turning on DIIS***
  2   -154.4647159018  -0.078966234667 0.04337906  0.00274965  0.1951750 0.7000
  3   -154.5187847782  -0.054068876403 0.02639369  0.00171304  0.1389779 0.7000
  4   -154.5570026638  -0.038217885587 0.06180636  0.00424258  0.0970458 0.0000
  5   -154.6484359245  -0.091433260697 0.00673836  0.00032844  0.0070323 0.0000
  6   -154.6484985838  -0.000062659330 0.00223380  0.00009424  0.0044208 0.0000
                      *** Initiating the SOSCF procedure ***
                           *** Shutting down DIIS ***
                      *** Re-Reading the Fockian *** 
                      *** Removing any level shift *** 
ITER      Energy       Delta-E        Grad      Rot      Max-DP    RMS-DP
  7   -154.64851857  -0.0000199889  0.000334  0.000334  0.000612  0.000067
               *** Restarting incremental Fock matrix formation ***
  8   -154.64851963  -0.0000010550  0.000147  0.000176  0.000301  0.000021
  9   -154.64851965  -0.0000000247  0.000167  0.000102  0.000215  0.000013
 10   -154.64851984  -0.0000001914  0.000023  0.000016  0.000033  0.000002
 11   -154.64851985  -0.0000000018  0.000013  0.000006  0.000016  0.000001
                 **** Energy Check signals convergence ****
              ***Rediagonalizing the Fockian in SOSCF/NRSCF***

               *****************************************************
               *                     SUCCESS                       *
               *           SCF CONVERGED AFTER  12 CYCLES          *
               *****************************************************

Old exchange energy                            =     -8.703902812 Eh
New exchange energy                            =     -8.703907580 Eh
Exchange energy change after final integration =     -0.000004768 Eh
Total energy after final integration           =   -154.648524616 Eh
Final COS-X integration done in                =     1.109 sec

----------------
TOTAL SCF ENERGY
----------------

Total Energy       :         -154.64852462 Eh           -4208.20030 eV

Components:
Nuclear Repulsion  :           82.46500041 Eh            2243.98674 eV
Electronic Energy  :         -237.11352502 Eh           -6452.18704 eV
One Electron Energy:         -372.92166163 Eh          -10147.71431 eV
Two Electron Energy:          135.80813660 Eh            3695.52727 eV
Max COSX asymmetry :            0.00000057 Eh               0.00002 eV

Virial components:
Potential Energy   :         -308.17161839 Eh           -8385.77606 eV
Kinetic Energy     :          153.52309377 Eh            4177.57577 eV
Virial Ratio       :            2.00733069


DFT components:
N(Alpha)           :       12.999999916542 electrons
N(Beta)            :       12.999999916542 electrons
N(Total)           :       25.999999833085 electrons
E(X)               :      -11.564251158369 Eh       
E(C)               :       -1.112916962889 Eh       
E(XC)              :      -12.677168121257 Eh       
DFET-embed. en.    :        0.000000000000 Eh       

---------------
SCF CONVERGENCE
---------------

  Last Energy change         ...   -2.5527e-09  Tolerance :   1.0000e-08
  Last MAX-Density change    ...    5.5511e-16  Tolerance :   1.0000e-07
  Last RMS-Density change    ...    4.4957e-17  Tolerance :   5.0000e-09
  Last Orbital Gradient      ...    3.3272e-07  Tolerance :   1.0000e-05
  Last Orbital Rotation      ...    5.5515e-07  Tolerance :   1.0000e-05

             **** THE GBW FILE WAS UPDATED (pbeh-3c.gbw) ****
             **** DENSITY pbeh-3c.scfp WAS UPDATED ****
             **** ENERGY FILE WAS UPDATED (pbeh-3c.en.tmp) ****
             **** THE GBW FILE WAS UPDATED (pbeh-3c.gbw) ****
             **** DENSITY pbeh-3c.scfp WAS UPDATED ****
----------------
ORBITAL ENERGIES
----------------

  NO   OCC          E(Eh)            E(eV) 
   0   2.0000     -19.452535      -529.3304 
   1   2.0000     -10.491796      -285.4963 
   2   2.0000     -10.491765      -285.4955 
   3   2.0000      -1.118440       -30.4343 
   4   2.0000      -0.835082       -22.7237 
   5   2.0000      -0.694620       -18.9016 
   6   2.0000      -0.552365       -15.0306 
   7   2.0000      -0.522840       -14.2272 
   8   2.0000      -0.522738       -14.2244 
   9   2.0000      -0.459090       -12.4925 
  10   2.0000      -0.458870       -12.4865 
  11   2.0000      -0.288676        -7.8553 
  12   2.0000      -0.288487        -7.8501 
  13   0.0000       0.152108         4.1391 
  14   0.0000       0.166233         4.5234 
  15   0.0000       0.193056         5.2533 
  16   0.0000       0.220763         6.0073 
  17   0.0000       0.221045         6.0149 
  18   0.0000       0.247549         6.7361 
  19   0.0000       0.247904         6.7458 
  20   0.0000       0.279860         7.6154 
  21   0.0000       0.434931        11.8351 
  22   0.0000       0.474301        12.9064 
  23   0.0000       0.474675        12.9166 
  24   0.0000       0.581564        15.8252 
  25   0.0000       0.582270        15.8444 
  26   0.0000       0.748103        20.3569 
  27   0.0000       0.975913        26.5559 
  28   0.0000       0.983182        26.7538 
  29   0.0000       0.983588        26.7648 
  30   0.0000       0.998030        27.1578 
  31   0.0000       0.998432        27.1687 
  32   0.0000       1.031433        28.0667 
  33   0.0000       1.044998        28.4358 
  34   0.0000       1.081393        29.4262 
  35   0.0000       1.186318        32.2814 
  36   0.0000       1.187311        32.3084 
  37   0.0000       1.485097        40.4115 
  38   0.0000       1.485869        40.4326 
  39   0.0000       1.789053        48.6826 
  40   0.0000       1.789773        48.7022 
  41   0.0000       1.951233        53.0957 
  42   0.0000       1.974951        53.7411 
  43   0.0000       1.995584        54.3026 
  44   0.0000       1.995720        54.3063 
  45   0.0000       2.167242        58.9737 
  46   0.0000       2.186666        59.5022 
  47   0.0000       2.189562        59.5810 
  48   0.0000       2.328788        63.3696 
  49   0.0000       2.355673        64.1011 
  50   0.0000       2.357568        64.1527 
  51   0.0000       2.735433        74.4349 
  52   0.0000       2.736274        74.4578 
  53   0.0000       3.467030        94.3427 
  54   0.0000      13.670991       372.0066 
  55   0.0000      13.849574       376.8661 
  56   0.0000      25.586809       696.2525 

                    ********************************
                    * MULLIKEN POPULATION ANALYSIS *
                    ********************************

-----------------------
MULLIKEN ATOMIC CHARGES
-----------------------
   0 O :   -0.517089
   1 C :   -0.291483
   2 C :   -0.291438
   3 H :    0.183199
   4 H :    0.183693
   5 H :    0.183175
   6 H :    0.183214
   7 H :    0.183592
   8 H :    0.183137
Sum of atomic charges:   -0.0000000

--------------------------------
MULLIKEN REDUCED ORBITAL CHARGES
--------------------------------
  0 O s       :     3.650259  s :     3.650259
      pz      :     1.864691  p :     4.845266
      px      :     1.116331
      py      :     1.864243
      dz2     :     0.002149  d :     0.021564
      dxz     :     0.006529
      dyz     :     0.000082
      dx2y2   :     0.006289
      dxy     :     0.006515
  1 C s       :     3.301244  s :     3.301244
      pz      :     1.117409  p :     2.914431
      px      :     0.679852
      py      :     1.117170
      dz2     :     0.010679  d :     0.075809
      dxz     :     0.020056
      dyz     :     0.007229
      dx2y2   :     0.017696
      dxy     :     0.020149
  2 C s       :     3.301208  s :     3.301208
      pz      :     1.117289  p :     2.914393
      px      :     0.679890
      py      :     1.117214
      dz2     :     0.010674  d :     0.075837
      dxz     :     0.020099
      dyz     :     0.007213
      dx2y2   :     0.017736
      dxy     :     0.020115
  3 H s       :     0.816801  s :     0.816801
  4 H s       :     0.816307  s :     0.816307
  5 H s       :     0.816825  s :     0.816825
  6 H s       :     0.816786  s :     0.816786
  7 H s       :     0.816408  s :     0.816408
  8 H s       :     0.816863  s :     0.816863


                     *******************************
                     * LOEWDIN POPULATION ANALYSIS *
                     *******************************

----------------------
LOEWDIN ATOMIC CHARGES
----------------------
   0 O :   -0.292088
   1 C :   -0.154670
   2 C :   -0.154697
   3 H :    0.100227
   4 H :    0.100317
   5 H :    0.100213
   6 H :    0.100255
   7 H :    0.100252
   8 H :    0.100192

-------------------------------
LOEWDIN REDUCED ORBITAL CHARGES
-------------------------------
  0 O s       :     3.308387  s :     3.308387
      pz      :     1.852995  p :     4.934496
      px      :     1.228820
      py      :     1.852681
      dz2     :     0.003306  d :     0.049205
      dxz     :     0.018080
      dyz     :     0.000165
      dx2y2   :     0.009603
      dxy     :     0.018050
  1 C s       :     2.938835  s :     2.938835
      pz      :     1.131069  p :     3.065246
      px      :     0.803382
      py      :     1.130795
      dz2     :     0.020666  d :     0.150589
      dxz     :     0.039946
      dyz     :     0.012292
      dx2y2   :     0.037559
      dxy     :     0.040126
  2 C s       :     2.938819  s :     2.938819
      pz      :     1.130967  p :     3.065228
      px      :     0.803463
      py      :     1.130797
      dz2     :     0.020651  d :     0.150651
      dxz     :     0.040041
      dyz     :     0.012269
      dx2y2   :     0.037630
      dxy     :     0.040060
  3 H s       :     0.899773  s :     0.899773
  4 H s       :     0.899683  s :     0.899683
  5 H s       :     0.899787  s :     0.899787
  6 H s       :     0.899745  s :     0.899745
  7 H s       :     0.899748  s :     0.899748
  8 H s       :     0.899808  s :     0.899808


                      *****************************
                      * MAYER POPULATION ANALYSIS *
                      *****************************

  NA   - Mulliken gross atomic population
  ZA   - Total nuclear charge
  QA   - Mulliken gross atomic charge
  VA   - Mayer's total valence
  BVA  - Mayer's bonded valence
  FA   - Mayer's free valence

  ATOM       NA         ZA         QA         VA         BVA        FA
  0 O      8.5171     8.0000    -0.5171     1.9174     1.9174     0.0000
  1 C      6.2915     6.0000    -0.2915     3.7339     3.7339    -0.0000
  2 C      6.2914     6.0000    -0.2914     3.7341     3.7341    -0.0000
  3 H      0.8168     1.0000     0.1832     0.9094     0.9094    -0.0000
  4 H      0.8163     1.0000     0.1837     0.9090     0.9090     0.0000
  5 H      0.8168     1.0000     0.1832     0.9094     0.9094     0.0000
  6 H      0.8168     1.0000     0.1832     0.9094     0.9094     0.0000
  7 H      0.8164     1.0000     0.1836     0.9090     0.9090     0.0000
  8 H      0.8169     1.0000     0.1831     0.9094     0.9094    -0.0000

  Mayer bond orders larger than 0.100000
B(  0-O ,  1-C ) :   0.9347 B(  0-O ,  2-C ) :   0.9348 B(  1-C ,  3-H ) :   0.9122 
B(  1-C ,  4-H ) :   0.9120 B(  1-C ,  5-H ) :   0.9117 B(  2-C ,  6-H ) :   0.9120 
B(  2-C ,  7-H ) :   0.9119 B(  2-C ,  8-H ) :   0.9120 

-------
TIMINGS
-------

Total SCF time: 0 days 0 hours 0 min 29 sec 

Total time                  ....      29.635 sec
Sum of individual times     ....      26.760 sec  ( 90.3%)

Fock matrix formation       ....      18.912 sec  ( 63.8%)
  Split-RI-J                ....       1.177 sec  (  6.2% of F)
  Chain of spheres X        ....       6.570 sec  ( 34.7% of F)
  XC integration            ....       5.913 sec  ( 31.3% of F)
    Basis function eval.    ....       1.510 sec  ( 25.5% of XC)
    Density eval.           ....       0.789 sec  ( 13.3% of XC)
    XC-Functional eval.     ....       0.898 sec  ( 15.2% of XC)
    XC-Potential eval.      ....       0.331 sec  (  5.6% of XC)
Diagonalization             ....       0.421 sec  (  1.4%)
Density matrix formation    ....       0.021 sec  (  0.1%)
Population analysis         ....       0.023 sec  (  0.1%)
Initial guess               ....       0.003 sec  (  0.0%)
Orbital Transformation      ....       0.000 sec  (  0.0%)
Orbital Orthonormalization  ....       0.000 sec  (  0.0%)
DIIS solution               ....       2.281 sec  (  7.7%)
SOSCF solution              ....       0.010 sec  (  0.0%)
Grid generation             ....       5.089 sec  ( 17.2%)

Maximum memory used throughout the entire SCF-calculation: 46.8 MB


-------------------------------------------------------------------------------
                          DFT DISPERSION CORRECTION                            
                                                                               
                              DFTD3 V3.1  Rev 1                                
                          USING Becke-Johnson damping                          
-------------------------------------------------------------------------------
The PBEh-3c composite method is recognized
Using three-body term ABC
Active option DFTDOPT                   ...         4   

molecular C6(AA) [au] = 494.176926 


            DFT-D V3
 parameters
 s6 scaling factor         :     1.0000 
 a1 scaling factor         :     0.4860 
 s8 scaling factor         :     0.0000 
 a2 scaling factor         :     4.5000 
 Damping factor alpha9(ATM):    16.0000 
 ad hoc parameters k1-k3   :    16.0000     1.3333    -4.0000 

 Edisp/kcal,au: -1.343505924405  -0.002141012744 
 E6   /kcal   :  -1.345359615 
 E8   /kcal   :  -0.000000000 
 E6(ABC)      :   0.001853691 
 % E8         :   0.000000000 
 % E6(ABC)    :  -0.137974130 

-------------------------   ----------------
Dispersion correction           -0.002141013
-------------------------   ----------------

------------------   -----------------
gCP correction             0.022683983
------------------   -----------------

-------------------------   --------------------
FINAL SINGLE POINT ENERGY      -154.627981646298
-------------------------   --------------------


                            ***************************************
                            *     ORCA property calculations      *
                            ***************************************

                                    ---------------------
                                    Active property flags
                                    ---------------------
   (+) Dipole Moment


------------------------------------------------------------------------------
                       ORCA ELECTRIC PROPERTIES CALCULATION
------------------------------------------------------------------------------

Dipole Moment Calculation                       ... on
Quadrupole Moment Calculation                   ... off
Polarizability Calculation                      ... off
GBWName                                         ... pbeh-3c.gbw
Electron density                                ... pbeh-3c.scfp
The origin for moment calculation is the CENTER OF MASS  = (-0.000264,  0.000874  0.018945)

-------------
DIPOLE MOMENT
-------------
                                X             Y             Z
Electronic contribution:     -0.00020      -0.00362       0.00273
Nuclear contribution   :      0.00060       0.00451      -0.00183
                        -----------------------------------------
Total Dipole Moment    :      0.00041       0.00090       0.00090
                        -----------------------------------------
Magnitude (a.u.)       :      0.00133
Magnitude (Debye)      :      0.00339



--------------------
Rotational spectrum 
--------------------
 
Rotational constants in cm-1:     2.655829     0.249745     0.249701 
Rotational constants in MHz : 79619.735853  7487.163282  7485.861366 

 Dipole components along the rotational axes: 
x,y,z [a.u.] :     0.000405     0.000386    -0.001210 
x,y,z [Debye]:     0.001030     0.000981    -0.003074 

 

Timings for individual modules:

Sum of individual times         ...       31.526 sec (=   0.525 min)
GTO integral calculation        ...        1.599 sec (=   0.027 min)   5.1 %
SCF iterations                  ...       29.927 sec (=   0.499 min)  94.9 %
                             ****ORCA TERMINATED NORMALLY****
TOTAL RUN TIME: 0 days 0 hours 0 minutes 32 seconds 930 msec
