
                                 *****************
                                 * O   R   C   A *
                                 *****************

                                            #,                                       
                                            ###                                      
                                            ####                                     
                                            #####                                    
                                            ######                                   
                                           ########,                                 
                                     ,,################,,,,,                         
                               ,,#################################,,                 
                          ,,##########################################,,             
                       ,#########################################, ''#####,          
                    ,#############################################,,   '####,        
                  ,##################################################,,,,####,       
                ,###########''''           ''''###############################       
              ,#####''   ,,,,##########,,,,          '''####'''          '####       
            ,##' ,,,,###########################,,,                        '##       
           ' ,,###''''                  '''############,,,                           
         ,,##''                                '''############,,,,        ,,,,,,###''
      ,#''                                            '''#######################'''  
     '                                                          ''''####''''         
             ,#######,   #######,   ,#######,      ##                                
            ,#'     '#,  ##    ##  ,#'     '#,    #''#        ######   ,####,        
            ##       ##  ##   ,#'  ##            #'  '#       #        #'  '#        
            ##       ##  #######   ##           ,######,      #####,   #    #        
            '#,     ,#'  ##    ##  '#,     ,#' ,#      #,         ##   #,  ,#        
             '#######'   ##     ##  '#######'  #'      '#     #####' # '####'        



                  #######################################################
                  #                        -***-                        #
                  #          Department of theory and spectroscopy      #
                  #    Directorship and core code : Frank Neese         #
                  #        Max Planck Institute fuer Kohlenforschung    #
                  #                Kaiser Wilhelm Platz 1               #
                  #                 D-45470 Muelheim/Ruhr               #
                  #                      Germany                        #
                  #                                                     #
                  #                  All rights reserved                #
                  #                        -***-                        #
                  #######################################################


                         Program Version 5.0.3 -  RELEASE  -


 With contributions from (in alphabetic order):
   Daniel Aravena         : Magnetic Suceptibility
   Michael Atanasov       : Ab Initio Ligand Field Theory (pilot matlab implementation)
   Alexander A. Auer      : GIAO ZORA, VPT2 properties, NMR spectrum
   Ute Becker             : Parallelization
   Giovanni Bistoni       : ED, misc. LED, open-shell LED, HFLD
   Martin Brehm           : Molecular dynamics
   Dmytro Bykov           : SCF Hessian
   Vijay G. Chilkuri      : MRCI spin determinant printing, contributions to CSF-ICE
   Dipayan Datta          : RHF DLPNO-CCSD density
   Achintya Kumar Dutta   : EOM-CC, STEOM-CC
   Dmitry Ganyushin       : Spin-Orbit,Spin-Spin,Magnetic field MRCI
   Miquel Garcia          : C-PCM and meta-GGA Hessian, CC/C-PCM, Gaussian charge scheme
   Yang Guo               : DLPNO-NEVPT2, F12-NEVPT2, CIM, IAO-localization
   Andreas Hansen         : Spin unrestricted coupled pair/coupled cluster methods
   Benjamin Helmich-Paris : MC-RPA, TRAH-SCF, COSX integrals
   Lee Huntington         : MR-EOM, pCC
   Robert Izsak           : Overlap fitted RIJCOSX, COSX-SCS-MP3, EOM
   Marcus Kettner         : VPT2
   Christian Kollmar      : KDIIS, OOCD, Brueckner-CCSD(T), CCSD density, CASPT2, CASPT2-K
   Simone Kossmann        : Meta GGA functionals, TD-DFT gradient, OOMP2, MP2 Hessian
   Martin Krupicka        : Initial AUTO-CI
   Lucas Lang             : DCDCAS
   Marvin Lechner         : AUTO-CI (C++ implementation), FIC-MRCC
   Dagmar Lenk            : GEPOL surface, SMD
   Dimitrios Liakos       : Extrapolation schemes; Compound Job, initial MDCI parallelization
   Dimitrios Manganas     : Further ROCIS development; embedding schemes
   Dimitrios Pantazis     : SARC Basis sets
   Anastasios Papadopoulos: AUTO-CI, single reference methods and gradients
   Taras Petrenko         : DFT Hessian,TD-DFT gradient, ASA, ECA, R-Raman, ABS, FL, XAS/XES, NRVS
   Peter Pinski           : DLPNO-MP2, DLPNO-MP2 Gradient
   Christoph Reimann      : Effective Core Potentials
   Marius Retegan         : Local ZFS, SOC
   Christoph Riplinger    : Optimizer, TS searches, QM/MM, DLPNO-CCSD(T), (RO)-DLPNO pert. Triples
   Tobias Risthaus        : Range-separated hybrids, TD-DFT gradient, RPA, STAB
   Michael Roemelt        : Original ROCIS implementation
   Masaaki Saitow         : Open-shell DLPNO-CCSD energy and density
   Barbara Sandhoefer     : DKH picture change effects
   Avijit Sen             : IP-ROCIS
   Kantharuban Sivalingam : CASSCF convergence, NEVPT2, FIC-MRCI
   Bernardo de Souza      : ESD, SOC TD-DFT
   Georgi Stoychev        : AutoAux, RI-MP2 NMR, DLPNO-MP2 response
   Willem Van den Heuvel  : Paramagnetic NMR
   Boris Wezisla          : Elementary symmetry handling
   Frank Wennmohs         : Technical directorship


 We gratefully acknowledge several colleagues who have allowed us to
 interface, adapt or use parts of their codes:
   Stefan Grimme, W. Hujo, H. Kruse, P. Pracht,  : VdW corrections, initial TS optimization,
                  C. Bannwarth, S. Ehlert          DFT functionals, gCP, sTDA/sTD-DF
   Ed Valeev, F. Pavosevic, A. Kumar             : LibInt (2-el integral package), F12 methods
   Garnet Chan, S. Sharma, J. Yang, R. Olivares  : DMRG
   Ulf Ekstrom                                   : XCFun DFT Library
   Mihaly Kallay                                 : mrcc  (arbitrary order and MRCC methods)
   Jiri Pittner, Ondrej Demel                    : Mk-CCSD
   Frank Weinhold                                : gennbo (NPA and NBO analysis)
   Christopher J. Cramer and Donald G. Truhlar   : smd solvation model
   Lars Goerigk                                  : TD-DFT with DH, B97 family of functionals
   V. Asgeirsson, H. Jonsson                     : NEB implementation
   FAccTs GmbH                                   : IRC, NEB, NEB-TS, DLPNO-Multilevel, CI-OPT
                                                   MM, QMMM, 2- and 3-layer-ONIOM, Crystal-QMMM,
                                                   LR-CPCM, SF, NACMEs, symmetry and pop. for TD-DFT,
                                                   nearIR, NL-DFT gradient (VV10), updates on ESD,
                                                   ML-optimized integration grids
   S Lehtola, MJT Oliveira, MAL Marques          : LibXC Library
   Liviu Ungur et al                             : ANISO software


 Your calculation uses the libint2 library for the computation of 2-el integrals
 For citations please refer to: http://libint.valeyev.net

 Your ORCA version has been built with support for libXC version: 5.1.0
 For citations please refer to: https://tddft.org/programs/libxc/

 This ORCA versions uses:
   CBLAS   interface :  Fast vector & matrix operations
   LAPACKE interface :  Fast linear algebra routines
   SCALAPACK package :  Parallel linear algebra routines
   Shared memory     :  Shared parallel matrices
   BLAS/LAPACK       :  OpenBLAS 0.3.15  USE64BITINT DYNAMIC_ARCH NO_AFFINITY Haswell SINGLE_THREADED
        Core in use  :  Haswell
   Copyright (c) 2011-2014, The OpenBLAS Project




***************************************
The coordinates will be read from file: teh2_nh3.xyz
***************************************


Your calculation utilizes the geometrical counterpoise correction gCP
Please cite in your paper:
H.Kruse, S. Grimme J.Chem.Phys., 136, (2012), 154101 
   

Your calculation utilizes the atom-pairwise dispersion correction
with the Becke-Johnson damping scheme (D3BJ)
Cite in your paper:
S.Grimme, S.Ehrlich, L.Goerigk, J Comput Chem, (2011), 32, 1456–1465 
S.Grimme, J.Antony, S.Ehrlich and H.Krieg, J.Chem.Phys., 132, (2010), 154104 
   

Your calculation employs the composite approach PBEh-3c.
Please cite in your paper:
S. Grimme, J. G. Brandenburg, C. Bannwarth, A. Hansen J.Chem.Phys., 143, (2015), 054107 
   

================================================================================

cite the ECPs for Te [Def2-ECP] as follows:
Ce-Yb(ecp-28): M. Dolg, H. Stoll, H.Preuss, J. Chem. Phys., 1989, 90, 1730-1734.
Y-Cd(ecp-28), Hf-Hg(ecp-46): D. Andrae,U. Haeussermann, M. Dolg, H. Stoll, H. Preuss, Theor. Chim. Acta, 1990, 77, 123-141.
In-Sb(ecp-28), Tl-Bi(ecp-46): B. Metz, H. Stoll, M. Dolg, J. Chem. Phys., 2000, 113, 2563-2569.
Te-Xe(ecp-28), Po-Rn(ecp-46): K. A. Peterson, D. Figgen, E. Goll, H. Stoll, M. Dolg, J. Chem. Phys., 2003, 119, 11113-11123.
Rb(ecp-28), Cs(ecp-46): T. Leininger, A. Nicklass, W. Kuechle, H. Stoll, M. Dolg, A. Bergner, Chem. Phys. Lett., 1996, 255, 274-280.
Sr(ecp-28), Ba(ecp-46): M. Kaupp, P. V. Schleyer, H. Stoll and H. Preuss, J. Chem. Phys., 1991, 94, 1360-1366.
La(ecp-46): M. Dolg, H. Stoll, A. Savin, H. Preuss, Theor. Chim. Acta, 1989, 75, 173-194.
Lu(ecp-28): X. Cao, M. Dolg, J. Chem. Phys., 2001, 115, 7348-7355.

ECP parameters for Te [Def2-ECP] have been obtained from:
TURBOMOLE (7.0.2)

----- Orbital basis set information -----
Your calculation utilizes the basis: def2-mSVP

----- AuxJ basis set information -----
Your calculation utilizes the auxiliary basis: def2/J
   F. Weigend, Phys. Chem. Chem. Phys. 8, 1057 (2006).

================================================================================
                                        WARNINGS
                       Please study these warnings very carefully!
================================================================================


INFO   : the flag for use of the SHARK integral package has been found!

================================================================================
                                       INPUT FILE
================================================================================
NAME = pbeh-3c.inp
|  1> ! PBEh-3c def2/J TightSCF DefGrid3
|  2> 
|  3> %maxcore 60000
|  4> 
|  5> %pal
|  6> nprocs 4
|  7> end
|  8> 
|  9> *xyzfile 0 1 teh2_nh3.xyz
| 10> 
| 11>                          ****END OF INPUT****
================================================================================

                       ****************************
                       * Single Point Calculation *
                       ****************************

---------------------------------
CARTESIAN COORDINATES (ANGSTROEM)
---------------------------------
  Te    -0.278014   -1.821518    0.000000
  H      0.218166   -3.388666    0.000000
  H      1.276544   -1.333468    0.000000
  N     -0.278014    1.353739    0.000000
  H      0.153359    1.772178    0.812260
  H      0.153359    1.772178   -0.812260
  H     -1.245401    1.645555    0.000000

----------------------------
CARTESIAN COORDINATES (A.U.)
----------------------------
  NO LB      ZA    FRAG     MASS         X           Y           Z
   0 Te   24.0000*   0   127.600   -0.525370   -3.442169    0.000000
   1 H     1.0000    0     1.008    0.412274   -6.403650    0.000000
   2 H     1.0000    0     1.008    2.412319   -2.519889    0.000000
   3 N     7.0000    0    14.007   -0.525370    2.558196    0.000000
   4 H     1.0000    0     1.008    0.289807    3.348931    1.534949
   5 H     1.0000    0     1.008    0.289807    3.348931   -1.534949
   6 H     1.0000    0     1.008   -2.353466    3.109649    0.000000
* core charge reduced due to ECP

--------------------------------
INTERNAL COORDINATES (ANGSTROEM)
--------------------------------
 Te     0   0   0     0.000000000000     0.00000000     0.00000000
 H      1   0   0     1.643820864218     0.00000000     0.00000000
 H      1   2   0     1.629368916775    89.86108426     0.00000000
 N      3   1   2     3.104469463599    77.38004356   180.00000000
 H      4   3   1     1.010415716784    98.31884268   125.66546862
 H      4   3   1     1.010415716784    98.31884268   234.33453138
 H      4   3   1     1.010442569187   136.83565992     0.00000000

---------------------------
INTERNAL COORDINATES (A.U.)
---------------------------
 Te     0   0   0     0.000000000000     0.00000000     0.00000000
 H      1   0   0     3.106371246598     0.00000000     0.00000000
 H      1   2   0     3.079061023829    89.86108426     0.00000000
 N      3   1   2     5.866597077324    77.38004356   180.00000000
 H      4   3   1     1.909408986131    98.31884268   125.66546862
 H      4   3   1     1.909408986131    98.31884268   234.33453138
 H      4   3   1     1.909459729819   136.83565992     0.00000000

---------------------
BASIS SET INFORMATION
---------------------
There are 3 groups of distinct atoms

 Group   1 Type Te  : 10s7p6d contracted to 4s4p2d pattern {6211/4111/51}
 Group   2 Type H   : 4s contracted to 2s pattern {31}
 Group   3 Type N   : 8s4p1d contracted to 4s2p1d pattern {5111/31/1}

Atom   0Te   basis set group =>   1
Atom   1H    basis set group =>   2
Atom   2H    basis set group =>   2
Atom   3N    basis set group =>   3
Atom   4H    basis set group =>   2
Atom   5H    basis set group =>   2
Atom   6H    basis set group =>   2
---------------------------------
AUXILIARY/J BASIS SET INFORMATION
---------------------------------
There are 3 groups of distinct atoms

 Group   1 Type Te  : 11s5p5d3f1g contracted to 8s4p3d2f1g pattern {41111111/2111/311/21/1}
 Group   2 Type H   : 5s2p1d contracted to 3s1p1d pattern {311/2/1}
 Group   3 Type N   : 12s5p4d2f1g contracted to 6s4p3d1f1g pattern {711111/2111/211/2/1}

Atom   0Te   basis set group =>   1
Atom   1H    basis set group =>   2
Atom   2H    basis set group =>   2
Atom   3N    basis set group =>   3
Atom   4H    basis set group =>   2
Atom   5H    basis set group =>   2
Atom   6H    basis set group =>   2
-------------------------
ECP PARAMETER INFORMATION
-------------------------

 Group 1, Type Te ECP Def2-ECP (replacing 28 core electrons, lmax=3)

Atom   0Te   ECP group =>   1



           ************************************************************
           *        Program running with 4 parallel MPI-processes     *
           *              working on a common directory               *
           ************************************************************
------------------------------------------------------------------------------
                           ORCA GTO INTEGRAL CALCULATION
                           -- RI-GTO INTEGRALS CHOSEN --
------------------------------------------------------------------------------
------------------------------------------------------------------------------
                   ___                                                        
                  /   \      - P O W E R E D   B Y -                         
                 /     \                                                     
                 |  |  |   _    _      __       _____    __    __             
                 |  |  |  | |  | |    /  \     |  _  \  |  |  /  |          
                  \  \/   | |  | |   /    \    | | | |  |  | /  /          
                 / \  \   | |__| |  /  /\  \   | |_| |  |  |/  /          
                |  |  |   |  __  | /  /__\  \  |    /   |      \           
                |  |  |   | |  | | |   __   |  |    \   |  |\   \          
                \     /   | |  | | |  |  |  |  | |\  \  |  | \   \       
                 \___/    |_|  |_| |__|  |__|  |_| \__\ |__|  \__/        
                                                                              
                      - O R C A' S   B I G   F R I E N D -                    
                                      &                                       
                       - I N T E G R A L  F E E D E R -                       
                                                                              
 v1 FN, 2020, v2 2021                                                         
------------------------------------------------------------------------------


Reading SHARK input file pbeh-3c.SHARKINP.tmp ... ok
----------------------
SHARK INTEGRAL PACKAGE
----------------------

Number of atoms                             ...      7
Number of basis functions                   ...     51
Number of shells                            ...     27
Maximum angular momentum                    ...      2
Integral batch strategy                     ... SHARK/LIBINT Hybrid
RI-J (if used) integral strategy            ... SPLIT-RIJ (Revised 2003 algorithm where possible)
Printlevel                                  ...      1
Contraction scheme used                     ... SEGMENTED contraction
Coulomb Range Separation                    ... NOT USED
Exchange Range Separation                   ... NOT USED
Finite Nucleus Model                        ... NOT USED
Auxiliary Coulomb fitting basis             ... AVAILABLE
   # of basis functions in Aux-J            ...    162
   # of shells in Aux-J                     ...     58
   Maximum angular momentum in Aux-J        ...      4
Auxiliary J/K fitting basis                 ... NOT available
Auxiliary Correlation fitting basis         ... NOT available
Auxiliary 'external' fitting basis          ... NOT available
Integral threshold                          ...     2.500000e-11
Primitive cut-off                           ...     2.500000e-12
Primitive pair pre-selection threshold      ...     2.500000e-12

Calculating pre-screening integrals         ... done (  0.0 sec) Dimension = 27
Organizing shell pair data                  ... done (  0.4 sec)
Shell pair information
Total number of shell pairs                 ...       378
Shell pairs after pre-screening             ...       365
Total number of primitive shell pairs       ...      1656
Primitive shell pairs kept                  ...      1264
          la=0 lb=0:    161 shell pairs
          la=1 lb=0:    105 shell pairs
          la=1 lb=1:     21 shell pairs
          la=2 lb=0:     54 shell pairs
          la=2 lb=1:     18 shell pairs
          la=2 lb=2:      6 shell pairs

Calculating one electron integrals          ... done (  0.0 sec)
Calculating ECP integrals                   ... done (  0.1 sec)
Calculating RI/J V-Matrix + Cholesky decomp.... done (  0.6 sec)
Calculating Nuclear repulsion               ... done (  0.1 sec) ENN=     68.820024894281 Eh

SHARK setup successfully completed in   2.3 seconds

Maximum memory used throughout the entire GTOINT-calculation: 9.9 MB


           ************************************************************
           *        Program running with 4 parallel MPI-processes     *
           *              working on a common directory               *
           ************************************************************
-------------------------------------------------------------------------------
                                 ORCA SCF
-------------------------------------------------------------------------------

------------
SCF SETTINGS
------------
Hamiltonian:
 Density Functional     Method          .... DFT(GTOs)
 Exchange Functional    Exchange        .... PBE
   PBE kappa parameter   XKappa         ....  1.024500
   PBE mue parameter    XMuePBE         ....  0.123457
 Correlation Functional Correlation     .... PBE
   PBE beta parameter  CBetaPBE         ....  0.030000
 LDA part of GGA corr.  LDAOpt          .... PW91-LDA
 Gradients option       PostSCFGGA      .... off
 Hybrid DFT is turned on
   Fraction HF Exchange ScalHFX         ....  0.420000
   Scaling of DF-GGA-X  ScalDFX         ....  0.580000
   Scaling of DF-GGA-C  ScalDFC         ....  1.000000
   Scaling of DF-LDA-C  ScalLDAC        ....  1.000000
   Perturbative correction              ....  0.000000
   Density functional embedding theory  .... OFF
 RI-approximation to the Coulomb term is turned on
   Number of AuxJ basis functions       .... 162
   RIJ-ON(X) (HFX calculated with O(N)) .... on
   Number of AuxJ basis functions       .... 162
   RIJ-COSX (HFX calculated with COS-X)).... on


General Settings:
 Integral files         IntName         .... pbeh-3c
 Hartree-Fock type      HFTyp           .... RHF
 Total Charge           Charge          ....    0
 Multiplicity           Mult            ....    1
 Number of Electrons    NEL             ....   36
 Basis Dimension        Dim             ....   51
 Nuclear Repulsion      ENuc            ....     68.8200248943 Eh

Convergence Acceleration:
 DIIS                   CNVDIIS         .... on
   Start iteration      DIISMaxIt       ....    12
   Startup error        DIISStart       ....  0.200000
   # of expansion vecs  DIISMaxEq       ....     5
   Bias factor          DIISBfac        ....   1.050
   Max. coefficient     DIISMaxC        ....  10.000
 Trust-Rad. Augm. Hess. CNVTRAH         .... auto
   Auto Start mean grad. ratio tolernc. ....  1.125000
   Auto Start start iteration           ....    20
   Auto Start num. interpolation iter.  ....    10
   Max. Number of Micro iterations      ....    16
   Max. Number of Macro iterations      .... Maxiter - #DIIS iter
   Number of Davidson start vectors     ....     2
   Converg. threshold I  (grad. norm)   ....   1.000e-05
   Converg. threshold II (energy diff.) ....   1.000e-08
   Grad. Scal. Fac. for Micro threshold ....   0.100
   Minimum threshold for Micro iter.    ....   0.010
   NR start threshold (gradient norm)   ....   0.001
   Initial trust radius                 ....   0.400
   Minimum AH scaling param. (alpha)    ....   1.000
   Maximum AH scaling param. (alpha)    .... 1000.000
   Orbital update algorithm             .... Taylor
   White noise on init. David. guess    .... on
   Maximum white noise                  ....   0.010
   Quad. conv. algorithm                .... NR
   COSX micro iterations for RIJONX calc.... off
 SOSCF                  CNVSOSCF        .... on
   Start iteration      SOSCFMaxIt      ....   150
   Startup grad/error   SOSCFStart      ....  0.003300
 Level Shifting         CNVShift        .... on
   Level shift para.    LevelShift      ....    0.2500
   Turn off err/grad.   ShiftErr        ....    0.0010
 Zerner damping         CNVZerner       .... off
 Static damping         CNVDamp         .... on
   Fraction old density DampFac         ....    0.7000
   Max. Damping (<1)    DampMax         ....    0.9800
   Min. Damping (>=0)   DampMin         ....    0.0000
   Turn off err/grad.   DampErr         ....    0.1000
 Fernandez-Rico         CNVRico         .... off

SCF Procedure:
 Maximum # iterations   MaxIter         ....   125
 SCF integral mode      SCFMode         .... Direct
   Integral package                     .... SHARK and LIBINT hybrid scheme
 Reset frequency        DirectResetFreq ....    20
 Integral Threshold     Thresh          ....  2.500e-11 Eh
 Primitive CutOff       TCut            ....  2.500e-12 Eh

Convergence Tolerance:
 Convergence Check Mode ConvCheckMode   .... Total+1el-Energy
 Convergence forced     ConvForced      .... 0
 Energy Change          TolE            ....  1.000e-08 Eh
 1-El. energy change                    ....  1.000e-05 Eh
 Orbital Gradient       TolG            ....  1.000e-05
 Orbital Rotation angle TolX            ....  1.000e-05
 DIIS Error             TolErr          ....  5.000e-07


Diagonalization of the overlap matrix:
Smallest eigenvalue                        ... 3.348e-02
Time for diagonalization                   ...    0.001 sec
Threshold for overlap eigenvalues          ... 1.000e-08
Number of eigenvalues below threshold      ... 0
Time for construction of square roots      ...    0.395 sec
Total time needed                          ...    0.396 sec

--------------------------------
INITIAL GUESS: MINIMAL BASIS EHT
--------------------------------
The minimal basis has 23 functions
EHT matrix was diagonalized
Basis set overlap was calculated now projecting the orbitals
Using GuessMode=FMatrix for the initial guess
C*T matrix was formed
Effective Fockian was calculated
Effective Fockian was diagonalized
Initial density was built
                      ------------------
                      INITIAL GUESS DONE
                      ------------------
-------------------
DFT GRID GENERATION
-------------------

General Integration Accuracy     IntAcc      ... 4.959
Radial Grid Type                 RadialGrid  ... OptM3 with GC (2021)
Angular Grid (max. ang.)         AngularGrid ... 6 (Lebedev-590)
Angular grid pruning method      GridPruning ... 4 (adaptive)
Weight generation scheme         WeightScheme... Becke
Basis function cutoff            BFCut       ... 1.0000e-11
Integration weight cutoff        WCut        ... 1.0000e-14
Angular grids for H and He will be reduced by one unit
Partially contracted basis set               ... off
Rotationally invariant grid construction     ... off

Total number of grid points                  ...    84388
Total number of batches                      ...     1322
Average number of points per batch           ...       63
Average number of grid points per atom       ...    12055
Time for grid setup =    1.913 sec

--------------------
COSX GRID GENERATION
--------------------

GRIDX 1
-------
General Integration Accuracy     IntAcc      ... 4.020
Radial Grid Type                 RadialGrid  ... OptM3 with GC (2021)
Angular Grid (max. ang.)         AngularGrid ... 2 (Lebedev-110)
Angular grid pruning method      GridPruning ... 4 (adaptive)
Weight generation scheme         WeightScheme... Becke
Basis function cutoff            BFCut       ... 1.0000e-11
Integration weight cutoff        WCut        ... 1.0000e-14
Angular grids for H and He will be reduced by one unit
Partially contracted basis set               ... on
Rotationally invariant grid construction     ... off

Total number of grid points                  ...     8920
Total number of batches                      ...      142
Average number of points per batch           ...       62
Average number of grid points per atom       ...     1274
UseSFitting                                  ... on

GRIDX 2
-------
General Integration Accuracy     IntAcc      ... 4.338
Radial Grid Type                 RadialGrid  ... OptM3 with GC (2021)
Angular Grid (max. ang.)         AngularGrid ... 3 (Lebedev-194)
Angular grid pruning method      GridPruning ... 4 (adaptive)
Weight generation scheme         WeightScheme... Becke
Basis function cutoff            BFCut       ... 1.0000e-11
Integration weight cutoff        WCut        ... 1.0000e-14
Angular grids for H and He will be reduced by one unit
Partially contracted basis set               ... on
Rotationally invariant grid construction     ... off

Total number of grid points                  ...    18941
Total number of batches                      ...      300
Average number of points per batch           ...       63
Average number of grid points per atom       ...     2706
UseSFitting                                  ... on

GRIDX 3
-------
General Integration Accuracy     IntAcc      ... 4.871
Radial Grid Type                 RadialGrid  ... OptM3 with GC (2021)
Angular Grid (max. ang.)         AngularGrid ... 4 (Lebedev-302)
Angular grid pruning method      GridPruning ... 4 (adaptive)
Weight generation scheme         WeightScheme... Becke
Basis function cutoff            BFCut       ... 1.0000e-11
Integration weight cutoff        WCut        ... 1.0000e-14
Angular grids for H and He will be reduced by one unit
Partially contracted basis set               ... on
Rotationally invariant grid construction     ... off

Total number of grid points                  ...    38024
Total number of batches                      ...      597
Average number of points per batch           ...       63
Average number of grid points per atom       ...     5432
UseSFitting                                  ... on

Time for X-Grid setup             =    2.777 sec

--------------
SCF ITERATIONS
--------------
ITER       Energy         Delta-E        Max-DP      RMS-DP      [F,P]     Damp
               ***  Starting incremental Fock matrix formation  ***
  0   -324.1335900774   0.000000000000 0.27987538  0.01410397  1.1435412 0.7000
  1   -324.5923072698  -0.458717192358 0.20902608  0.01017244  0.8078651 0.7000
  2   -324.9111902772  -0.318883007442 0.17124619  0.00745395  0.5716087 0.7000
  3   -325.1358966601  -0.224706382809 0.13756602  0.00552415  0.4047201 0.7000
  4   -325.2947456653  -0.158849005227 0.10898320  0.00412101  0.2866905 0.7000
  5   -325.4068938701  -0.112148204794 0.08557357  0.00308638  0.2031539 0.7000
                               ***Turning on DIIS***
  6   -325.4859470254  -0.079053155370 0.06679251  0.00231809  0.1439984 0.7000
  7   -325.5416019494  -0.055654923992 0.05715779  0.00187050  0.1020910 0.7000
  8   -325.5807541975  -0.039152248068 0.15145704  0.00481995  0.0718371 0.0000
                      *** Initiating the SOSCF procedure ***
                           *** Shutting down DIIS ***
                      *** Re-Reading the Fockian *** 
                      *** Removing any level shift *** 
ITER      Energy       Delta-E        Grad      Rot      Max-DP    RMS-DP
  9   -325.67289138  -0.0921371817  0.001466  0.001466  0.010424  0.000309
               *** Restarting incremental Fock matrix formation ***
 10   -325.67291100  -0.0000196220  0.000763  0.001659  0.005230  0.000197
 11   -325.67291867  -0.0000076687  0.000169  0.000509  0.001332  0.000058
 12   -325.67291911  -0.0000004416  0.000081  0.000087  0.000234  0.000010
 13   -325.67291915  -0.0000000346  0.000046  0.000061  0.000137  0.000007
 14   -325.67291916  -0.0000000182  0.000003  0.000007  0.000011  0.000001
                  ***Gradient check signals convergence***
              ***Rediagonalizing the Fockian in SOSCF/NRSCF***

               *****************************************************
               *                     SUCCESS                       *
               *           SCF CONVERGED AFTER  15 CYCLES          *
               *****************************************************

Old exchange energy                            =    -11.802162694 Eh
New exchange energy                            =    -11.802169600 Eh
Exchange energy change after final integration =     -0.000006906 Eh
Total energy after final integration           =   -325.672926070 Eh
Final COS-X integration done in                =     0.559 sec

----------------
TOTAL SCF ENERGY
----------------

Total Energy       :         -325.67292607 Eh           -8862.01085 eV

Components:
Nuclear Repulsion  :           68.82002489 Eh            1872.68808 eV
Electronic Energy  :         -394.49295096 Eh          -10734.69894 eV
One Electron Energy:         -682.14960276 Eh          -18562.23438 eV
Two Electron Energy:          287.65665180 Eh            7827.53544 eV
Max COSX asymmetry :            0.00000122 Eh               0.00003 eV

Virial components:
Potential Energy   :         -485.48895002 Eh          -13210.82596 eV
Kinetic Energy     :          159.81602395 Eh            4348.81510 eV
Virial Ratio       :            3.03779895


DFT components:
N(Alpha)           :       17.999999720523 electrons
N(Beta)            :       17.999999720523 electrons
N(Total)           :       35.999999441047 electrons
E(X)               :      -15.850587924908 Eh       
E(C)               :       -1.809676263070 Eh       
E(XC)              :      -17.660264187978 Eh       
DFET-embed. en.    :        0.000000000000 Eh       

---------------
SCF CONVERGENCE
---------------

  Last Energy change         ...   -1.2750e-10  Tolerance :   1.0000e-08
  Last MAX-Density change    ...    3.5527e-15  Tolerance :   1.0000e-07
  Last RMS-Density change    ...    1.2586e-16  Tolerance :   5.0000e-09
  Last Orbital Gradient      ...    1.9581e-06  Tolerance :   1.0000e-05
  Last Orbital Rotation      ...    2.4931e-06  Tolerance :   1.0000e-05

             **** THE GBW FILE WAS UPDATED (pbeh-3c.gbw) ****
             **** DENSITY pbeh-3c.scfp WAS UPDATED ****
             **** ENERGY FILE WAS UPDATED (pbeh-3c.en.tmp) ****
             **** THE GBW FILE WAS UPDATED (pbeh-3c.gbw) ****
             **** DENSITY pbeh-3c.scfp WAS UPDATED ****
----------------
ORBITAL ENERGIES
----------------

  NO   OCC          E(Eh)            E(eV) 
   0   2.0000     -14.620839      -397.8532 
   1   2.0000      -6.480895      -176.3541 
   2   2.0000      -4.574498      -124.4784 
   3   2.0000      -4.570363      -124.3659 
   4   2.0000      -4.559194      -124.0620 
   5   2.0000      -1.685259       -45.8582 
   6   2.0000      -1.682183       -45.7745 
   7   2.0000      -1.671928       -45.4955 
   8   2.0000      -1.668388       -45.3991 
   9   2.0000      -1.667095       -45.3640 
  10   2.0000      -0.958104       -26.0713 
  11   2.0000      -0.692543       -18.8451 
  12   2.0000      -0.533278       -14.5112 
  13   2.0000      -0.533051       -14.5051 
  14   2.0000      -0.416845       -11.3429 
  15   2.0000      -0.363470        -9.8905 
  16   2.0000      -0.319946        -8.7062 
  17   2.0000      -0.243378        -6.6226 
  18   0.0000       0.042260         1.1500 
  19   0.0000       0.088533         2.4091 
  20   0.0000       0.139737         3.8024 
  21   0.0000       0.210543         5.7292 
  22   0.0000       0.210978         5.7410 
  23   0.0000       0.285235         7.7616 
  24   0.0000       0.364322         9.9137 
  25   0.0000       0.374983        10.2038 
  26   0.0000       0.395117        10.7517 
  27   0.0000       0.399834        10.8800 
  28   0.0000       0.402907        10.9637 
  29   0.0000       0.416242        11.3265 
  30   0.0000       0.565225        15.3805 
  31   0.0000       0.598434        16.2842 
  32   0.0000       0.750742        20.4287 
  33   0.0000       0.762877        20.7589 
  34   0.0000       0.891956        24.2713 
  35   0.0000       0.997168        27.1343 
  36   0.0000       1.026371        27.9290 
  37   0.0000       1.032653        28.0999 
  38   0.0000       1.063314        28.9342 
  39   0.0000       1.121543        30.5187 
  40   0.0000       1.449936        39.4548 
  41   0.0000       1.713568        46.6286 
  42   0.0000       1.715107        46.6704 
  43   0.0000       2.031348        55.2758 
  44   0.0000       2.490290        67.7642 
  45   0.0000       2.492179        67.8156 
  46   0.0000      18.735652       509.8230 
  47   0.0000      18.818328       512.0727 
  48   0.0000      18.906831       514.4810 
  49   0.0000      19.017411       517.4901 
  50   0.0000      52.599800      1431.3133 

                    ********************************
                    * MULLIKEN POPULATION ANALYSIS *
                    ********************************

-----------------------
MULLIKEN ATOMIC CHARGES
-----------------------
   0 Te:   -0.186933
   1 H :    0.051809
   2 H :    0.082569
   3 N :   -0.942491
   4 H :    0.331341
   5 H :    0.331341
   6 H :    0.332363
Sum of atomic charges:   -0.0000000

--------------------------------
MULLIKEN REDUCED ORBITAL CHARGES
--------------------------------
  0 Tes       :     3.907397  s :     3.907397
      pz      :     3.998133  p :    10.166425
      px      :     3.176852
      py      :     2.991439
      dz2     :     2.021990  d :    10.113112
      dxz     :     2.001142
      dyz     :     2.000644
      dx2y2   :     2.064616
      dxy     :     2.024719
  1 H s       :     0.948191  s :     0.948191
  2 H s       :     0.917431  s :     0.917431
  3 N s       :     3.667350  s :     3.667350
      pz      :     1.229782  p :     4.243108
      px      :     1.237406
      py      :     1.775920
      dz2     :     0.004395  d :     0.032033
      dxz     :     0.004041
      dyz     :     0.011317
      dx2y2   :     0.004006
      dxy     :     0.008275
  4 H s       :     0.668659  s :     0.668659
  5 H s       :     0.668659  s :     0.668659
  6 H s       :     0.667637  s :     0.667637


                     *******************************
                     * LOEWDIN POPULATION ANALYSIS *
                     *******************************

----------------------
LOEWDIN ATOMIC CHARGES
----------------------
   0 Te:   -0.135867
   1 H :    0.025460
   2 H :    0.051546
   3 N :   -0.617942
   4 H :    0.225299
   5 H :    0.225299
   6 H :    0.226206

-------------------------------
LOEWDIN REDUCED ORBITAL CHARGES
-------------------------------
  0 Tes       :     3.783992  s :     3.783992
      pz      :     3.997658  p :    10.216596
      px      :     3.207754
      py      :     3.011183
      dz2     :     2.026494  d :    10.135279
      dxz     :     2.001142
      dyz     :     2.000662
      dx2y2   :     2.077995
      dxy     :     2.028985
  1 H s       :     0.974540  s :     0.974540
  2 H s       :     0.948454  s :     0.948454
  3 N s       :     3.308185  s :     3.308185
      pz      :     1.242917  p :     4.263710
      px      :     1.249076
      py      :     1.771717
      dz2     :     0.007915  d :     0.046047
      dxz     :     0.008043
      dyz     :     0.014186
      dx2y2   :     0.006029
      dxy     :     0.009874
  4 H s       :     0.774701  s :     0.774701
  5 H s       :     0.774701  s :     0.774701
  6 H s       :     0.773794  s :     0.773794


                      *****************************
                      * MAYER POPULATION ANALYSIS *
                      *****************************

  NA   - Mulliken gross atomic population
  ZA   - Total nuclear charge
  QA   - Mulliken gross atomic charge
  VA   - Mayer's total valence
  BVA  - Mayer's bonded valence
  FA   - Mayer's free valence

  ATOM       NA         ZA         QA         VA         BVA        FA
  0 Te    24.1869    24.0000    -0.1869     2.0080     2.0080     0.0000
  1 H      0.9482     1.0000     0.0518     0.9734     0.9734    -0.0000
  2 H      0.9174     1.0000     0.0826     0.9743     0.9743    -0.0000
  3 N      7.9425     7.0000    -0.9425     2.7038     2.7038    -0.0000
  4 H      0.6687     1.0000     0.3313     0.8589     0.8589    -0.0000
  5 H      0.6687     1.0000     0.3313     0.8589     0.8589    -0.0000
  6 H      0.6676     1.0000     0.3324     0.8582     0.8582    -0.0000

  Mayer bond orders larger than 0.100000
B(  0-Te,  1-H ) :   0.9565 B(  0-Te,  2-H ) :   0.9717 B(  3-N ,  4-H ) :   0.8691 
B(  3-N ,  5-H ) :   0.8691 B(  3-N ,  6-H ) :   0.8691 

-------
TIMINGS
-------

Total SCF time: 0 days 0 hours 1 min 6 sec 

Total time                  ....      66.753 sec
Sum of individual times     ....      56.630 sec  ( 84.8%)

Fock matrix formation       ....      47.878 sec  ( 71.7%)
  Split-RI-J                ....       5.028 sec  ( 10.5% of F)
  Chain of spheres X        ....       6.421 sec  ( 13.4% of F)
  XC integration            ....      17.509 sec  ( 36.6% of F)
    Basis function eval.    ....       0.857 sec  (  4.9% of XC)
    Density eval.           ....       0.685 sec  (  3.9% of XC)
    XC-Functional eval.     ....       0.819 sec  (  4.7% of XC)
    XC-Potential eval.      ....       0.200 sec  (  1.1% of XC)
Diagonalization             ....       0.667 sec  (  1.0%)
Density matrix formation    ....       0.099 sec  (  0.1%)
Population analysis         ....       0.592 sec  (  0.9%)
Initial guess               ....       0.003 sec  (  0.0%)
Orbital Transformation      ....       0.000 sec  (  0.0%)
Orbital Orthonormalization  ....       0.000 sec  (  0.0%)
DIIS solution               ....       1.556 sec  (  2.3%)
SOSCF solution              ....       1.146 sec  (  1.7%)
Grid generation             ....       4.690 sec  (  7.0%)

Maximum memory used throughout the entire SCF-calculation: 46.1 MB


-------------------------------------------------------------------------------
                          DFT DISPERSION CORRECTION                            
                                                                               
                              DFTD3 V3.1  Rev 1                                
                          USING Becke-Johnson damping                          
-------------------------------------------------------------------------------
The PBEh-3c composite method is recognized
Using three-body term ABC
Active option DFTDOPT                   ...         4   

molecular C6(AA) [au] = 1093.184674 


            DFT-D V3
 parameters
 s6 scaling factor         :     1.0000 
 a1 scaling factor         :     0.4860 
 s8 scaling factor         :     0.0000 
 a2 scaling factor         :     4.5000 
 Damping factor alpha9(ATM):    16.0000 
 ad hoc parameters k1-k3   :    16.0000     1.3333    -4.0000 

 Edisp/kcal,au: -1.097674671978  -0.001749255749 
 E6   /kcal   :  -1.097877252 
 E8   /kcal   :  -0.000000000 
 E6(ABC)      :   0.000202580 
 % E8         :   0.000000000 
 % E6(ABC)    :  -0.018455388 

-------------------------   ----------------
Dispersion correction           -0.001749256
-------------------------   ----------------

 ** NOTE ** -> element te will be treated as se
NOTIFICATION: Different basis set in ORCA and otool_gcp:
ORCA: 51  gCP: 57 
If you are NOT using ECPs, check your basis set inputs!
------------------   -----------------
gCP correction             0.010251717
------------------   -----------------

-------------------------   --------------------
FINAL SINGLE POINT ENERGY      -325.664423609002
-------------------------   --------------------


                            ***************************************
                            *     ORCA property calculations      *
                            ***************************************

                                    ---------------------
                                    Active property flags
                                    ---------------------
   (+) Dipole Moment


------------------------------------------------------------------------------
                       ORCA ELECTRIC PROPERTIES CALCULATION
------------------------------------------------------------------------------

Dipole Moment Calculation                       ... on
Quadrupole Moment Calculation                   ... off
Polarizability Calculation                      ... off
GBWName                                         ... pbeh-3c.gbw
Electron density                                ... pbeh-3c.scfp
The origin for moment calculation is the CENTER OF MASS  = (-0.500091, -2.744667  0.000000)

-------------
DIPOLE MOMENT
-------------
                                X             Y             Z
Electronic contribution:     -2.71130     -33.83590       0.00000
Nuclear contribution   :      2.76757      34.98728       0.00000
                        -----------------------------------------
Total Dipole Moment    :      0.05626       1.15138       0.00000
                        -----------------------------------------
Magnitude (a.u.)       :      1.15276
Magnitude (Debye)      :      2.93007



--------------------
Rotational spectrum 
--------------------
 
Rotational constants in cm-1:     3.180594     0.103138     0.101498 
Rotational constants in MHz : 95351.823535  3091.984979  3042.837763 

 Dipole components along the rotational axes: 
x,y,z [a.u.] :    -1.151003    -0.063535     0.000000 
x,y,z [Debye]:    -2.925618    -0.161492     0.000000 

 

Timings for individual modules:

Sum of individual times         ...       70.968 sec (=   1.183 min)
GTO integral calculation        ...        3.219 sec (=   0.054 min)   4.5 %
SCF iterations                  ...       67.750 sec (=   1.129 min)  95.5 %
                             ****ORCA TERMINATED NORMALLY****
TOTAL RUN TIME: 0 days 0 hours 1 minutes 16 seconds 967 msec
