
                                 *****************
                                 * O   R   C   A *
                                 *****************

                                            #,                                       
                                            ###                                      
                                            ####                                     
                                            #####                                    
                                            ######                                   
                                           ########,                                 
                                     ,,################,,,,,                         
                               ,,#################################,,                 
                          ,,##########################################,,             
                       ,#########################################, ''#####,          
                    ,#############################################,,   '####,        
                  ,##################################################,,,,####,       
                ,###########''''           ''''###############################       
              ,#####''   ,,,,##########,,,,          '''####'''          '####       
            ,##' ,,,,###########################,,,                        '##       
           ' ,,###''''                  '''############,,,                           
         ,,##''                                '''############,,,,        ,,,,,,###''
      ,#''                                            '''#######################'''  
     '                                                          ''''####''''         
             ,#######,   #######,   ,#######,      ##                                
            ,#'     '#,  ##    ##  ,#'     '#,    #''#        ######   ,####,        
            ##       ##  ##   ,#'  ##            #'  '#       #        #'  '#        
            ##       ##  #######   ##           ,######,      #####,   #    #        
            '#,     ,#'  ##    ##  '#,     ,#' ,#      #,         ##   #,  ,#        
             '#######'   ##     ##  '#######'  #'      '#     #####' # '####'        



                  #######################################################
                  #                        -***-                        #
                  #          Department of theory and spectroscopy      #
                  #    Directorship and core code : Frank Neese         #
                  #        Max Planck Institute fuer Kohlenforschung    #
                  #                Kaiser Wilhelm Platz 1               #
                  #                 D-45470 Muelheim/Ruhr               #
                  #                      Germany                        #
                  #                                                     #
                  #                  All rights reserved                #
                  #                        -***-                        #
                  #######################################################


                         Program Version 5.0.3 -  RELEASE  -


 With contributions from (in alphabetic order):
   Daniel Aravena         : Magnetic Suceptibility
   Michael Atanasov       : Ab Initio Ligand Field Theory (pilot matlab implementation)
   Alexander A. Auer      : GIAO ZORA, VPT2 properties, NMR spectrum
   Ute Becker             : Parallelization
   Giovanni Bistoni       : ED, misc. LED, open-shell LED, HFLD
   Martin Brehm           : Molecular dynamics
   Dmytro Bykov           : SCF Hessian
   Vijay G. Chilkuri      : MRCI spin determinant printing, contributions to CSF-ICE
   Dipayan Datta          : RHF DLPNO-CCSD density
   Achintya Kumar Dutta   : EOM-CC, STEOM-CC
   Dmitry Ganyushin       : Spin-Orbit,Spin-Spin,Magnetic field MRCI
   Miquel Garcia          : C-PCM and meta-GGA Hessian, CC/C-PCM, Gaussian charge scheme
   Yang Guo               : DLPNO-NEVPT2, F12-NEVPT2, CIM, IAO-localization
   Andreas Hansen         : Spin unrestricted coupled pair/coupled cluster methods
   Benjamin Helmich-Paris : MC-RPA, TRAH-SCF, COSX integrals
   Lee Huntington         : MR-EOM, pCC
   Robert Izsak           : Overlap fitted RIJCOSX, COSX-SCS-MP3, EOM
   Marcus Kettner         : VPT2
   Christian Kollmar      : KDIIS, OOCD, Brueckner-CCSD(T), CCSD density, CASPT2, CASPT2-K
   Simone Kossmann        : Meta GGA functionals, TD-DFT gradient, OOMP2, MP2 Hessian
   Martin Krupicka        : Initial AUTO-CI
   Lucas Lang             : DCDCAS
   Marvin Lechner         : AUTO-CI (C++ implementation), FIC-MRCC
   Dagmar Lenk            : GEPOL surface, SMD
   Dimitrios Liakos       : Extrapolation schemes; Compound Job, initial MDCI parallelization
   Dimitrios Manganas     : Further ROCIS development; embedding schemes
   Dimitrios Pantazis     : SARC Basis sets
   Anastasios Papadopoulos: AUTO-CI, single reference methods and gradients
   Taras Petrenko         : DFT Hessian,TD-DFT gradient, ASA, ECA, R-Raman, ABS, FL, XAS/XES, NRVS
   Peter Pinski           : DLPNO-MP2, DLPNO-MP2 Gradient
   Christoph Reimann      : Effective Core Potentials
   Marius Retegan         : Local ZFS, SOC
   Christoph Riplinger    : Optimizer, TS searches, QM/MM, DLPNO-CCSD(T), (RO)-DLPNO pert. Triples
   Tobias Risthaus        : Range-separated hybrids, TD-DFT gradient, RPA, STAB
   Michael Roemelt        : Original ROCIS implementation
   Masaaki Saitow         : Open-shell DLPNO-CCSD energy and density
   Barbara Sandhoefer     : DKH picture change effects
   Avijit Sen             : IP-ROCIS
   Kantharuban Sivalingam : CASSCF convergence, NEVPT2, FIC-MRCI
   Bernardo de Souza      : ESD, SOC TD-DFT
   Georgi Stoychev        : AutoAux, RI-MP2 NMR, DLPNO-MP2 response
   Willem Van den Heuvel  : Paramagnetic NMR
   Boris Wezisla          : Elementary symmetry handling
   Frank Wennmohs         : Technical directorship


 We gratefully acknowledge several colleagues who have allowed us to
 interface, adapt or use parts of their codes:
   Stefan Grimme, W. Hujo, H. Kruse, P. Pracht,  : VdW corrections, initial TS optimization,
                  C. Bannwarth, S. Ehlert          DFT functionals, gCP, sTDA/sTD-DF
   Ed Valeev, F. Pavosevic, A. Kumar             : LibInt (2-el integral package), F12 methods
   Garnet Chan, S. Sharma, J. Yang, R. Olivares  : DMRG
   Ulf Ekstrom                                   : XCFun DFT Library
   Mihaly Kallay                                 : mrcc  (arbitrary order and MRCC methods)
   Jiri Pittner, Ondrej Demel                    : Mk-CCSD
   Frank Weinhold                                : gennbo (NPA and NBO analysis)
   Christopher J. Cramer and Donald G. Truhlar   : smd solvation model
   Lars Goerigk                                  : TD-DFT with DH, B97 family of functionals
   V. Asgeirsson, H. Jonsson                     : NEB implementation
   FAccTs GmbH                                   : IRC, NEB, NEB-TS, DLPNO-Multilevel, CI-OPT
                                                   MM, QMMM, 2- and 3-layer-ONIOM, Crystal-QMMM,
                                                   LR-CPCM, SF, NACMEs, symmetry and pop. for TD-DFT,
                                                   nearIR, NL-DFT gradient (VV10), updates on ESD,
                                                   ML-optimized integration grids
   S Lehtola, MJT Oliveira, MAL Marques          : LibXC Library
   Liviu Ungur et al                             : ANISO software


 Your calculation uses the libint2 library for the computation of 2-el integrals
 For citations please refer to: http://libint.valeyev.net

 Your ORCA version has been built with support for libXC version: 5.1.0
 For citations please refer to: https://tddft.org/programs/libxc/

 This ORCA versions uses:
   CBLAS   interface :  Fast vector & matrix operations
   LAPACKE interface :  Fast linear algebra routines
   SCALAPACK package :  Parallel linear algebra routines
   Shared memory     :  Shared parallel matrices
   BLAS/LAPACK       :  OpenBLAS 0.3.15  USE64BITINT DYNAMIC_ARCH NO_AFFINITY Haswell SINGLE_THREADED
        Core in use  :  Haswell
   Copyright (c) 2011-2014, The OpenBLAS Project




***************************************
The coordinates will be read from file: ch3nh2.xyz
***************************************


Your calculation utilizes the geometrical counterpoise correction gCP
Please cite in your paper:
H.Kruse, S. Grimme J.Chem.Phys., 136, (2012), 154101 
   

Your calculation utilizes the atom-pairwise dispersion correction
with the Becke-Johnson damping scheme (D3BJ)
Cite in your paper:
S.Grimme, S.Ehrlich, L.Goerigk, J Comput Chem, (2011), 32, 1456–1465 
S.Grimme, J.Antony, S.Ehrlich and H.Krieg, J.Chem.Phys., 132, (2010), 154104 
   

Your calculation employs the composite approach PBEh-3c.
Please cite in your paper:
S. Grimme, J. G. Brandenburg, C. Bannwarth, A. Hansen J.Chem.Phys., 143, (2015), 054107 
   

================================================================================

----- Orbital basis set information -----
Your calculation utilizes the basis: def2-mSVP

----- AuxJ basis set information -----
Your calculation utilizes the auxiliary basis: def2/J
   F. Weigend, Phys. Chem. Chem. Phys. 8, 1057 (2006).

================================================================================
                                        WARNINGS
                       Please study these warnings very carefully!
================================================================================


INFO   : the flag for use of the SHARK integral package has been found!

================================================================================
                                       INPUT FILE
================================================================================
NAME = pbeh-3c.inp
|  1> ! PBEh-3c def2/J TightSCF DefGrid3
|  2> 
|  3> %maxcore 60000
|  4> 
|  5> %pal
|  6> nprocs 4
|  7> end
|  8> 
|  9> *xyzfile 0 1 ch3nh2.xyz
| 10> 
| 11>                          ****END OF INPUT****
================================================================================

                       ****************************
                       * Single Point Calculation *
                       ****************************

---------------------------------
CARTESIAN COORDINATES (ANGSTROEM)
---------------------------------
  C     -0.740440    0.000000    0.013778
  N      0.722205    0.000000   -0.072891
  H     -1.142877    0.000000    1.032894
  H     -1.128064    0.877640   -0.503077
  H     -1.128064   -0.877640   -0.503077
  H      1.093148   -0.807607    0.411018
  H      1.093148    0.807607    0.411018

----------------------------
CARTESIAN COORDINATES (A.U.)
----------------------------
  NO LB      ZA    FRAG     MASS         X           Y           Z
   0 C     6.0000    0    12.011   -1.399228    0.000000    0.026036
   1 N     7.0000    0    14.007    1.364769    0.000000   -0.137745
   2 H     1.0000    0     1.008   -2.159724    0.000000    1.951887
   3 H     1.0000    0     1.008   -2.131732    1.658499   -0.950677
   4 H     1.0000    0     1.008   -2.131732   -1.658499   -0.950677
   5 H     1.0000    0     1.008    2.065751   -1.526156    0.776711
   6 H     1.0000    0     1.008    2.065751    1.526156    0.776711

--------------------------------
INTERNAL COORDINATES (ANGSTROEM)
--------------------------------
 C      0   0   0     0.000000000000     0.00000000     0.00000000
 N      1   0   0     1.465209959613     0.00000000     0.00000000
 H      1   2   0     1.095697809627   114.93961199     0.00000000
 H      1   2   3     1.089790319441   109.08742921   121.55026023
 H      1   2   3     1.089790319441   109.08742921   238.44973977
 H      2   1   3     1.011927030532   109.73332708    57.98187783
 H      2   1   3     1.011927030532   109.73332708   302.01812217

---------------------------
INTERNAL COORDINATES (A.U.)
---------------------------
 C      0   0   0     0.000000000000     0.00000000     0.00000000
 N      1   0   0     2.768845552361     0.00000000     0.00000000
 H      1   2   0     2.070568785732   114.93961199     0.00000000
 H      1   2   3     2.059405247142   109.08742921   121.55026023
 H      1   2   3     2.059405247142   109.08742921   238.44973977
 H      2   1   3     1.912264955218   109.73332708    57.98187783
 H      2   1   3     1.912264955218   109.73332708   302.01812217

---------------------
BASIS SET INFORMATION
---------------------
There are 3 groups of distinct atoms

 Group   1 Type C   : 8s4p1d contracted to 4s2p1d pattern {5111/31/1}
 Group   2 Type N   : 8s4p1d contracted to 4s2p1d pattern {5111/31/1}
 Group   3 Type H   : 4s contracted to 2s pattern {31}

Atom   0C    basis set group =>   1
Atom   1N    basis set group =>   2
Atom   2H    basis set group =>   3
Atom   3H    basis set group =>   3
Atom   4H    basis set group =>   3
Atom   5H    basis set group =>   3
Atom   6H    basis set group =>   3
---------------------------------
AUXILIARY/J BASIS SET INFORMATION
---------------------------------
There are 3 groups of distinct atoms

 Group   1 Type C   : 12s5p4d2f1g contracted to 6s4p3d1f1g pattern {711111/2111/211/2/1}
 Group   2 Type N   : 12s5p4d2f1g contracted to 6s4p3d1f1g pattern {711111/2111/211/2/1}
 Group   3 Type H   : 5s2p1d contracted to 3s1p1d pattern {311/2/1}

Atom   0C    basis set group =>   1
Atom   1N    basis set group =>   2
Atom   2H    basis set group =>   3
Atom   3H    basis set group =>   3
Atom   4H    basis set group =>   3
Atom   5H    basis set group =>   3
Atom   6H    basis set group =>   3


           ************************************************************
           *        Program running with 4 parallel MPI-processes     *
           *              working on a common directory               *
           ************************************************************
------------------------------------------------------------------------------
                           ORCA GTO INTEGRAL CALCULATION
                           -- RI-GTO INTEGRALS CHOSEN --
------------------------------------------------------------------------------
------------------------------------------------------------------------------
                   ___                                                        
                  /   \      - P O W E R E D   B Y -                         
                 /     \                                                     
                 |  |  |   _    _      __       _____    __    __             
                 |  |  |  | |  | |    /  \     |  _  \  |  |  /  |          
                  \  \/   | |  | |   /    \    | | | |  |  | /  /          
                 / \  \   | |__| |  /  /\  \   | |_| |  |  |/  /          
                |  |  |   |  __  | /  /__\  \  |    /   |      \           
                |  |  |   | |  | | |   __   |  |    \   |  |\   \          
                \     /   | |  | | |  |  |  |  | |\  \  |  | \   \       
                 \___/    |_|  |_| |__|  |__|  |_| \__\ |__|  \__/        
                                                                              
                      - O R C A' S   B I G   F R I E N D -                    
                                      &                                       
                       - I N T E G R A L  F E E D E R -                       
                                                                              
 v1 FN, 2020, v2 2021                                                         
------------------------------------------------------------------------------


Reading SHARK input file pbeh-3c.SHARKINP.tmp ... ok
----------------------
SHARK INTEGRAL PACKAGE
----------------------

Number of atoms                             ...      7
Number of basis functions                   ...     40
Number of shells                            ...     24
Maximum angular momentum                    ...      2
Integral batch strategy                     ... SHARK/LIBINT Hybrid
RI-J (if used) integral strategy            ... SPLIT-RIJ (Revised 2003 algorithm where possible)
Printlevel                                  ...      1
Contraction scheme used                     ... SEGMENTED contraction
Coulomb Range Separation                    ... NOT USED
Exchange Range Separation                   ... NOT USED
Finite Nucleus Model                        ... NOT USED
Auxiliary Coulomb fitting basis             ... AVAILABLE
   # of basis functions in Aux-J            ...    153
   # of shells in Aux-J                     ...     55
   Maximum angular momentum in Aux-J        ...      4
Auxiliary J/K fitting basis                 ... NOT available
Auxiliary Correlation fitting basis         ... NOT available
Auxiliary 'external' fitting basis          ... NOT available
Integral threshold                          ...     2.500000e-11
Primitive cut-off                           ...     2.500000e-12
Primitive pair pre-selection threshold      ...     2.500000e-12

Calculating pre-screening integrals         ... done (  0.1 sec) Dimension = 24
Organizing shell pair data                  ... done (  0.2 sec)
Shell pair information
Total number of shell pairs                 ...       300
Shell pairs after pre-screening             ...       299
Total number of primitive shell pairs       ...      1122
Primitive shell pairs kept                  ...       952
          la=0 lb=0:    170 shell pairs
          la=1 lb=0:     72 shell pairs
          la=1 lb=1:     10 shell pairs
          la=2 lb=0:     36 shell pairs
          la=2 lb=1:      8 shell pairs
          la=2 lb=2:      3 shell pairs

Calculating one electron integrals          ... done (  0.0 sec)
Calculating RI/J V-Matrix + Cholesky decomp.... done (  0.6 sec)
Calculating Nuclear repulsion               ... done (  0.1 sec) ENN=     42.031474235383 Eh

SHARK setup successfully completed in   1.8 seconds

Maximum memory used throughout the entire GTOINT-calculation: 9.0 MB


           ************************************************************
           *        Program running with 4 parallel MPI-processes     *
           *              working on a common directory               *
           ************************************************************
-------------------------------------------------------------------------------
                                 ORCA SCF
-------------------------------------------------------------------------------

------------
SCF SETTINGS
------------
Hamiltonian:
 Density Functional     Method          .... DFT(GTOs)
 Exchange Functional    Exchange        .... PBE
   PBE kappa parameter   XKappa         ....  1.024500
   PBE mue parameter    XMuePBE         ....  0.123457
 Correlation Functional Correlation     .... PBE
   PBE beta parameter  CBetaPBE         ....  0.030000
 LDA part of GGA corr.  LDAOpt          .... PW91-LDA
 Gradients option       PostSCFGGA      .... off
 Hybrid DFT is turned on
   Fraction HF Exchange ScalHFX         ....  0.420000
   Scaling of DF-GGA-X  ScalDFX         ....  0.580000
   Scaling of DF-GGA-C  ScalDFC         ....  1.000000
   Scaling of DF-LDA-C  ScalLDAC        ....  1.000000
   Perturbative correction              ....  0.000000
   Density functional embedding theory  .... OFF
 RI-approximation to the Coulomb term is turned on
   Number of AuxJ basis functions       .... 153
   RIJ-ON(X) (HFX calculated with O(N)) .... on
   Number of AuxJ basis functions       .... 153
   RIJ-COSX (HFX calculated with COS-X)).... on


General Settings:
 Integral files         IntName         .... pbeh-3c
 Hartree-Fock type      HFTyp           .... RHF
 Total Charge           Charge          ....    0
 Multiplicity           Mult            ....    1
 Number of Electrons    NEL             ....   18
 Basis Dimension        Dim             ....   40
 Nuclear Repulsion      ENuc            ....     42.0314742354 Eh

Convergence Acceleration:
 DIIS                   CNVDIIS         .... on
   Start iteration      DIISMaxIt       ....    12
   Startup error        DIISStart       ....  0.200000
   # of expansion vecs  DIISMaxEq       ....     5
   Bias factor          DIISBfac        ....   1.050
   Max. coefficient     DIISMaxC        ....  10.000
 Trust-Rad. Augm. Hess. CNVTRAH         .... auto
   Auto Start mean grad. ratio tolernc. ....  1.125000
   Auto Start start iteration           ....    20
   Auto Start num. interpolation iter.  ....    10
   Max. Number of Micro iterations      ....    16
   Max. Number of Macro iterations      .... Maxiter - #DIIS iter
   Number of Davidson start vectors     ....     2
   Converg. threshold I  (grad. norm)   ....   1.000e-05
   Converg. threshold II (energy diff.) ....   1.000e-08
   Grad. Scal. Fac. for Micro threshold ....   0.100
   Minimum threshold for Micro iter.    ....   0.010
   NR start threshold (gradient norm)   ....   0.001
   Initial trust radius                 ....   0.400
   Minimum AH scaling param. (alpha)    ....   1.000
   Maximum AH scaling param. (alpha)    .... 1000.000
   Orbital update algorithm             .... Taylor
   White noise on init. David. guess    .... on
   Maximum white noise                  ....   0.010
   Quad. conv. algorithm                .... NR
   COSX micro iterations for RIJONX calc.... off
 SOSCF                  CNVSOSCF        .... on
   Start iteration      SOSCFMaxIt      ....   150
   Startup grad/error   SOSCFStart      ....  0.003300
 Level Shifting         CNVShift        .... on
   Level shift para.    LevelShift      ....    0.2500
   Turn off err/grad.   ShiftErr        ....    0.0010
 Zerner damping         CNVZerner       .... off
 Static damping         CNVDamp         .... on
   Fraction old density DampFac         ....    0.7000
   Max. Damping (<1)    DampMax         ....    0.9800
   Min. Damping (>=0)   DampMin         ....    0.0000
   Turn off err/grad.   DampErr         ....    0.1000
 Fernandez-Rico         CNVRico         .... off

SCF Procedure:
 Maximum # iterations   MaxIter         ....   125
 SCF integral mode      SCFMode         .... Direct
   Integral package                     .... SHARK and LIBINT hybrid scheme
 Reset frequency        DirectResetFreq ....    20
 Integral Threshold     Thresh          ....  2.500e-11 Eh
 Primitive CutOff       TCut            ....  2.500e-12 Eh

Convergence Tolerance:
 Convergence Check Mode ConvCheckMode   .... Total+1el-Energy
 Convergence forced     ConvForced      .... 0
 Energy Change          TolE            ....  1.000e-08 Eh
 1-El. energy change                    ....  1.000e-05 Eh
 Orbital Gradient       TolG            ....  1.000e-05
 Orbital Rotation angle TolX            ....  1.000e-05
 DIIS Error             TolErr          ....  5.000e-07


Diagonalization of the overlap matrix:
Smallest eigenvalue                        ... 1.365e-02
Time for diagonalization                   ...    0.001 sec
Threshold for overlap eigenvalues          ... 1.000e-08
Number of eigenvalues below threshold      ... 0
Time for construction of square roots      ...    0.191 sec
Total time needed                          ...    0.203 sec

--------------------------------
INITIAL GUESS: MINIMAL BASIS EHT
--------------------------------
The minimal basis has 15 functions
EHT matrix was diagonalized
Basis set overlap was calculated now projecting the orbitals
Using GuessMode=FMatrix for the initial guess
C*T matrix was formed
Effective Fockian was calculated
Effective Fockian was diagonalized
Initial density was built
                      ------------------
                      INITIAL GUESS DONE
                      ------------------
-------------------
DFT GRID GENERATION
-------------------

General Integration Accuracy     IntAcc      ... 4.959
Radial Grid Type                 RadialGrid  ... OptM3 with GC (2021)
Angular Grid (max. ang.)         AngularGrid ... 6 (Lebedev-590)
Angular grid pruning method      GridPruning ... 4 (adaptive)
Weight generation scheme         WeightScheme... Becke
Basis function cutoff            BFCut       ... 1.0000e-11
Integration weight cutoff        WCut        ... 1.0000e-14
Angular grids for H and He will be reduced by one unit
Partially contracted basis set               ... off
Rotationally invariant grid construction     ... off

Total number of grid points                  ...    73592
Total number of batches                      ...     1153
Average number of points per batch           ...       63
Average number of grid points per atom       ...    10513
Time for grid setup =    1.524 sec

--------------------
COSX GRID GENERATION
--------------------

GRIDX 1
-------
General Integration Accuracy     IntAcc      ... 4.020
Radial Grid Type                 RadialGrid  ... OptM3 with GC (2021)
Angular Grid (max. ang.)         AngularGrid ... 2 (Lebedev-110)
Angular grid pruning method      GridPruning ... 4 (adaptive)
Weight generation scheme         WeightScheme... Becke
Basis function cutoff            BFCut       ... 1.0000e-11
Integration weight cutoff        WCut        ... 1.0000e-14
Angular grids for H and He will be reduced by one unit
Partially contracted basis set               ... on
Rotationally invariant grid construction     ... off

Total number of grid points                  ...     7662
Total number of batches                      ...      123
Average number of points per batch           ...       62
Average number of grid points per atom       ...     1095
UseSFitting                                  ... on

GRIDX 2
-------
General Integration Accuracy     IntAcc      ... 4.338
Radial Grid Type                 RadialGrid  ... OptM3 with GC (2021)
Angular Grid (max. ang.)         AngularGrid ... 3 (Lebedev-194)
Angular grid pruning method      GridPruning ... 4 (adaptive)
Weight generation scheme         WeightScheme... Becke
Basis function cutoff            BFCut       ... 1.0000e-11
Integration weight cutoff        WCut        ... 1.0000e-14
Angular grids for H and He will be reduced by one unit
Partially contracted basis set               ... on
Rotationally invariant grid construction     ... off

Total number of grid points                  ...    16815
Total number of batches                      ...      266
Average number of points per batch           ...       63
Average number of grid points per atom       ...     2402
UseSFitting                                  ... on

GRIDX 3
-------
General Integration Accuracy     IntAcc      ... 4.871
Radial Grid Type                 RadialGrid  ... OptM3 with GC (2021)
Angular Grid (max. ang.)         AngularGrid ... 4 (Lebedev-302)
Angular grid pruning method      GridPruning ... 4 (adaptive)
Weight generation scheme         WeightScheme... Becke
Basis function cutoff            BFCut       ... 1.0000e-11
Integration weight cutoff        WCut        ... 1.0000e-14
Angular grids for H and He will be reduced by one unit
Partially contracted basis set               ... on
Rotationally invariant grid construction     ... off

Total number of grid points                  ...    34383
Total number of batches                      ...      540
Average number of points per batch           ...       63
Average number of grid points per atom       ...     4912
UseSFitting                                  ... on

Time for X-Grid setup             =    2.715 sec

--------------
SCF ITERATIONS
--------------
ITER       Energy         Delta-E        Max-DP      RMS-DP      [F,P]     Damp
               ***  Starting incremental Fock matrix formation  ***
  0    -95.4073097457   0.000000000000 0.14898173  0.00674934  0.3794799 0.7000
  1    -95.4889461583  -0.081636412584 0.09288259  0.00441558  0.2728328 0.7000
                               ***Turning on DIIS***
  2    -95.5373048959  -0.048358737679 0.05456392  0.00275107  0.1951212 0.7000
  3    -95.5701514747  -0.032846578755 0.02970049  0.00183424  0.1387301 0.7000
  4    -95.5934364482  -0.023284973536 0.08289192  0.00477234  0.0968906 0.0000
  5    -95.6496833601  -0.056246911879 0.01106068  0.00062909  0.0101002 0.0000
  6    -95.6498116717  -0.000128311571 0.00357663  0.00025528  0.0038811 0.0000
                      *** Initiating the SOSCF procedure ***
                           *** Shutting down DIIS ***
                      *** Re-Reading the Fockian *** 
                      *** Removing any level shift *** 
ITER      Energy       Delta-E        Grad      Rot      Max-DP    RMS-DP
  7    -95.64984777  -0.0000361012  0.001186  0.001186  0.005395  0.000302
               *** Restarting incremental Fock matrix formation ***
  8    -95.64984094   0.0000068364  0.000147  0.000349  0.000587  0.000037
  9    -95.64984113  -0.0000001975  0.000055  0.000187  0.000305  0.000020
 10    -95.64984118  -0.0000000421  0.000011  0.000034  0.000060  0.000004
 11    -95.64984118  -0.0000000032  0.000003  0.000005  0.000009  0.000001
                  ***Gradient check signals convergence***
              ***Rediagonalizing the Fockian in SOSCF/NRSCF***

               *****************************************************
               *                     SUCCESS                       *
               *           SCF CONVERGED AFTER  12 CYCLES          *
               *****************************************************

Old exchange energy                            =     -5.699427882 Eh
New exchange energy                            =     -5.699432671 Eh
Exchange energy change after final integration =     -0.000004789 Eh
Total energy after final integration           =    -95.649845968 Eh
Final COS-X integration done in                =     0.445 sec

----------------
TOTAL SCF ENERGY
----------------

Total Energy       :          -95.64984597 Eh           -2602.76463 eV

Components:
Nuclear Repulsion  :           42.03147424 Eh            1143.73456 eV
Electronic Energy  :         -137.68132020 Eh           -3746.49919 eV
One Electron Energy:         -211.60611793 Eh           -5758.09520 eV
Two Electron Energy:           73.92479773 Eh            2011.59601 eV
Max COSX asymmetry :            0.00000060 Eh               0.00002 eV

Virial components:
Potential Energy   :         -190.58412222 Eh           -5186.05762 eV
Kinetic Energy     :           94.93427625 Eh            2583.29299 eV
Virial Ratio       :            2.00753753


DFT components:
N(Alpha)           :        8.999999856576 electrons
N(Beta)            :        8.999999856576 electrons
N(Total)           :       17.999999713152 electrons
E(X)               :       -7.562065826889 Eh       
E(C)               :       -0.759178114687 Eh       
E(XC)              :       -8.321243941575 Eh       
DFET-embed. en.    :        0.000000000000 Eh       

---------------
SCF CONVERGENCE
---------------

  Last Energy change         ...   -3.5844e-10  Tolerance :   1.0000e-08
  Last MAX-Density change    ...    6.6613e-16  Tolerance :   1.0000e-07
  Last RMS-Density change    ...    3.5441e-17  Tolerance :   5.0000e-09
  Last Orbital Gradient      ...    2.4124e-06  Tolerance :   1.0000e-05
  Last Orbital Rotation      ...    2.5258e-06  Tolerance :   1.0000e-05

             **** THE GBW FILE WAS UPDATED (pbeh-3c.gbw) ****
             **** DENSITY pbeh-3c.scfp WAS UPDATED ****
             **** ENERGY FILE WAS UPDATED (pbeh-3c.en.tmp) ****
             **** THE GBW FILE WAS UPDATED (pbeh-3c.gbw) ****
             **** DENSITY pbeh-3c.scfp WAS UPDATED ****
----------------
ORBITAL ENERGIES
----------------

  NO   OCC          E(Eh)            E(eV) 
   0   2.0000     -14.603784      -397.3892 
   1   2.0000     -10.446454      -284.2625 
   2   2.0000      -0.964088       -26.2342 
   3   2.0000      -0.734256       -19.9801 
   4   2.0000      -0.545396       -14.8410 
   5   2.0000      -0.492670       -13.4062 
   6   2.0000      -0.452634       -12.3168 
   7   2.0000      -0.416541       -11.3347 
   8   2.0000      -0.282719        -7.6932 
   9   0.0000       0.138071         3.7571 
  10   0.0000       0.200769         5.4632 
  11   0.0000       0.212692         5.7877 
  12   0.0000       0.228298         6.2123 
  13   0.0000       0.233144         6.3442 
  14   0.0000       0.266038         7.2393 
  15   0.0000       0.536835        14.6080 
  16   0.0000       0.545307        14.8386 
  17   0.0000       0.556640        15.1469 
  18   0.0000       0.826137        22.4803 
  19   0.0000       0.829396        22.5690 
  20   0.0000       0.901330        24.5264 
  21   0.0000       0.978151        26.6168 
  22   0.0000       1.047587        28.5063 
  23   0.0000       1.047997        28.5175 
  24   0.0000       1.049608        28.5613 
  25   0.0000       1.074493        29.2384 
  26   0.0000       1.160231        31.5715 
  27   0.0000       1.524145        41.4741 
  28   0.0000       1.582913        43.0733 
  29   0.0000       1.636893        44.5421 
  30   0.0000       1.963115        53.4191 
  31   0.0000       2.098536        57.1041 
  32   0.0000       2.113763        57.5184 
  33   0.0000       2.240204        60.9591 
  34   0.0000       2.401456        65.3469 
  35   0.0000       2.447481        66.5993 
  36   0.0000       2.553985        69.4975 
  37   0.0000       2.722009        74.0696 
  38   0.0000      13.729655       373.6029 
  39   0.0000      19.114816       520.1406 

                    ********************************
                    * MULLIKEN POPULATION ANALYSIS *
                    ********************************

-----------------------
MULLIKEN ATOMIC CHARGES
-----------------------
   0 C :   -0.500761
   1 N :   -0.737784
   2 H :    0.180234
   3 H :    0.215939
   4 H :    0.215939
   5 H :    0.313216
   6 H :    0.313216
Sum of atomic charges:   -0.0000000

--------------------------------
MULLIKEN REDUCED ORBITAL CHARGES
--------------------------------
  0 C s       :     3.337019  s :     3.337019
      pz      :     1.112059  p :     3.111874
      px      :     0.842372
      py      :     1.157443
      dz2     :     0.008859  d :     0.051868
      dxz     :     0.014678
      dyz     :     0.006894
      dx2y2   :     0.012385
      dxy     :     0.009052
  1 N s       :     3.622307  s :     3.622307
      pz      :     1.727171  p :     4.078875
      px      :     1.157626
      py      :     1.194078
      dz2     :     0.002263  d :     0.036602
      dxz     :     0.006645
      dyz     :     0.013448
      dx2y2   :     0.007746
      dxy     :     0.006500
  2 H s       :     0.819766  s :     0.819766
  3 H s       :     0.784061  s :     0.784061
  4 H s       :     0.784061  s :     0.784061
  5 H s       :     0.686784  s :     0.686784
  6 H s       :     0.686784  s :     0.686784


                     *******************************
                     * LOEWDIN POPULATION ANALYSIS *
                     *******************************

----------------------
LOEWDIN ATOMIC CHARGES
----------------------
   0 C :   -0.278993
   1 N :   -0.487685
   2 H :    0.090786
   3 H :    0.120156
   4 H :    0.120156
   5 H :    0.217790
   6 H :    0.217790

-------------------------------
LOEWDIN REDUCED ORBITAL CHARGES
-------------------------------
  0 C s       :     2.949384  s :     2.949384
      pz      :     1.127964  p :     3.230862
      px      :     0.955159
      py      :     1.147740
      dz2     :     0.016377  d :     0.098746
      dxz     :     0.029659
      dyz     :     0.010946
      dx2y2   :     0.024886
      dxy     :     0.016879
  1 N s       :     3.254982  s :     3.254982
      pz      :     1.721963  p :     4.168034
      px      :     1.236739
      py      :     1.209331
      dz2     :     0.003604  d :     0.064669
      dxz     :     0.011092
      dyz     :     0.017843
      dx2y2   :     0.016843
      dxy     :     0.015288
  2 H s       :     0.909214  s :     0.909214
  3 H s       :     0.879844  s :     0.879844
  4 H s       :     0.879844  s :     0.879844
  5 H s       :     0.782210  s :     0.782210
  6 H s       :     0.782210  s :     0.782210


                      *****************************
                      * MAYER POPULATION ANALYSIS *
                      *****************************

  NA   - Mulliken gross atomic population
  ZA   - Total nuclear charge
  QA   - Mulliken gross atomic charge
  VA   - Mayer's total valence
  BVA  - Mayer's bonded valence
  FA   - Mayer's free valence

  ATOM       NA         ZA         QA         VA         BVA        FA
  0 C      6.5008     6.0000    -0.5008     3.7919     3.7919    -0.0000
  1 N      7.7378     7.0000    -0.7378     2.7639     2.7639    -0.0000
  2 H      0.8198     1.0000     0.1802     0.9086     0.9086     0.0000
  3 H      0.7841     1.0000     0.2159     0.9106     0.9106    -0.0000
  4 H      0.7841     1.0000     0.2159     0.9106     0.9106     0.0000
  5 H      0.6868     1.0000     0.3132     0.8623     0.8623    -0.0000
  6 H      0.6868     1.0000     0.3132     0.8623     0.8623    -0.0000

  Mayer bond orders larger than 0.100000
B(  0-C ,  1-N ) :   1.0333 B(  0-C ,  2-H ) :   0.9177 B(  0-C ,  3-H ) :   0.9266 
B(  0-C ,  4-H ) :   0.9266 B(  1-N ,  5-H ) :   0.8677 B(  1-N ,  6-H ) :   0.8677 


-------
TIMINGS
-------

Total SCF time: 0 days 0 hours 0 min 48 sec 

Total time                  ....      48.340 sec
Sum of individual times     ....      42.589 sec  ( 88.1%)

Fock matrix formation       ....      33.383 sec  ( 69.1%)
  Split-RI-J                ....       4.581 sec  ( 13.7% of F)
  Chain of spheres X        ....       4.730 sec  ( 14.2% of F)
  XC integration            ....       9.897 sec  ( 29.6% of F)
    Basis function eval.    ....       0.669 sec  (  6.8% of XC)
    Density eval.           ....       0.401 sec  (  4.0% of XC)
    XC-Functional eval.     ....       0.829 sec  (  8.4% of XC)
    XC-Potential eval.      ....       0.186 sec  (  1.9% of XC)
Diagonalization             ....       0.885 sec  (  1.8%)
Density matrix formation    ....       0.052 sec  (  0.1%)
Population analysis         ....       0.920 sec  (  1.9%)
Initial guess               ....       0.002 sec  (  0.0%)
Orbital Transformation      ....       0.000 sec  (  0.0%)
Orbital Orthonormalization  ....       0.000 sec  (  0.0%)
DIIS solution               ....       2.485 sec  (  5.1%)
SOSCF solution              ....       0.621 sec  (  1.3%)
Grid generation             ....       4.240 sec  (  8.8%)

Maximum memory used throughout the entire SCF-calculation: 45.3 MB


-------------------------------------------------------------------------------
                          DFT DISPERSION CORRECTION                            
                                                                               
                              DFTD3 V3.1  Rev 1                                
                          USING Becke-Johnson damping                          
-------------------------------------------------------------------------------
The PBEh-3c composite method is recognized
Using three-body term ABC
Active option DFTDOPT                   ...         4   

molecular C6(AA) [au] = 288.376595 


            DFT-D V3
 parameters
 s6 scaling factor         :     1.0000 
 a1 scaling factor         :     0.4860 
 s8 scaling factor         :     0.0000 
 a2 scaling factor         :     4.5000 
 Damping factor alpha9(ATM):    16.0000 
 ad hoc parameters k1-k3   :    16.0000     1.3333    -4.0000 

 Edisp/kcal,au: -0.956925620089  -0.001524957881 
 E6   /kcal   :  -0.957183171 
 E8   /kcal   :  -0.000000000 
 E6(ABC)      :   0.000257551 
 % E8         :   0.000000000 
 % E6(ABC)    :  -0.026914370 

-------------------------   ----------------
Dispersion correction           -0.001524958
-------------------------   ----------------

------------------   -----------------
gCP correction             0.008646470
------------------   -----------------

-------------------------   --------------------
FINAL SINGLE POINT ENERGY       -95.642724456092
-------------------------   --------------------


                            ***************************************
                            *     ORCA property calculations      *
                            ***************************************

                                    ---------------------
                                    Active property flags
                                    ---------------------
   (+) Dipole Moment


------------------------------------------------------------------------------
                       ORCA ELECTRIC PROPERTIES CALCULATION
------------------------------------------------------------------------------

Dipole Moment Calculation                       ... on
Quadrupole Moment Calculation                   ... off
Polarizability Calculation                      ... off
GBWName                                         ... pbeh-3c.gbw
Electron density                                ... pbeh-3c.scfp
The origin for moment calculation is the CENTER OF MASS  = ( 0.000006,  0.000000  0.000004)

-------------
DIPOLE MOMENT
-------------
                                X             Y             Z
Electronic contribution:      1.02504      -0.00000      -0.21297
Nuclear contribution   :     -1.13377       0.00000       0.79589
                        -----------------------------------------
Total Dipole Moment    :     -0.10873      -0.00000       0.58292
                        -----------------------------------------
Magnitude (a.u.)       :      0.59297
Magnitude (Debye)      :      1.50722



--------------------
Rotational spectrum 
--------------------
 
Rotational constants in cm-1:     3.461085     0.759873     0.731363 
Rotational constants in MHz : 103760.730139 22780.427653 21925.709657 

 Dipole components along the rotational axes: 
x,y,z [a.u.] :     0.108729    -0.000000     0.582921 
x,y,z [Debye]:     0.276367    -0.000000     1.481666 

 

Timings for individual modules:

Sum of individual times         ...       52.079 sec (=   0.868 min)
GTO integral calculation        ...        3.089 sec (=   0.051 min)   5.9 %
SCF iterations                  ...       48.990 sec (=   0.817 min)  94.1 %
                             ****ORCA TERMINATED NORMALLY****
TOTAL RUN TIME: 0 days 0 hours 0 minutes 54 seconds 963 msec
