
                                 *****************
                                 * O   R   C   A *
                                 *****************

                                            #,                                       
                                            ###                                      
                                            ####                                     
                                            #####                                    
                                            ######                                   
                                           ########,                                 
                                     ,,################,,,,,                         
                               ,,#################################,,                 
                          ,,##########################################,,             
                       ,#########################################, ''#####,          
                    ,#############################################,,   '####,        
                  ,##################################################,,,,####,       
                ,###########''''           ''''###############################       
              ,#####''   ,,,,##########,,,,          '''####'''          '####       
            ,##' ,,,,###########################,,,                        '##       
           ' ,,###''''                  '''############,,,                           
         ,,##''                                '''############,,,,        ,,,,,,###''
      ,#''                                            '''#######################'''  
     '                                                          ''''####''''         
             ,#######,   #######,   ,#######,      ##                                
            ,#'     '#,  ##    ##  ,#'     '#,    #''#        ######   ,####,        
            ##       ##  ##   ,#'  ##            #'  '#       #        #'  '#        
            ##       ##  #######   ##           ,######,      #####,   #    #        
            '#,     ,#'  ##    ##  '#,     ,#' ,#      #,         ##   #,  ,#        
             '#######'   ##     ##  '#######'  #'      '#     #####' # '####'        



                  #######################################################
                  #                        -***-                        #
                  #          Department of theory and spectroscopy      #
                  #    Directorship and core code : Frank Neese         #
                  #        Max Planck Institute fuer Kohlenforschung    #
                  #                Kaiser Wilhelm Platz 1               #
                  #                 D-45470 Muelheim/Ruhr               #
                  #                      Germany                        #
                  #                                                     #
                  #                  All rights reserved                #
                  #                        -***-                        #
                  #######################################################


                         Program Version 5.0.3 -  RELEASE  -


 With contributions from (in alphabetic order):
   Daniel Aravena         : Magnetic Suceptibility
   Michael Atanasov       : Ab Initio Ligand Field Theory (pilot matlab implementation)
   Alexander A. Auer      : GIAO ZORA, VPT2 properties, NMR spectrum
   Ute Becker             : Parallelization
   Giovanni Bistoni       : ED, misc. LED, open-shell LED, HFLD
   Martin Brehm           : Molecular dynamics
   Dmytro Bykov           : SCF Hessian
   Vijay G. Chilkuri      : MRCI spin determinant printing, contributions to CSF-ICE
   Dipayan Datta          : RHF DLPNO-CCSD density
   Achintya Kumar Dutta   : EOM-CC, STEOM-CC
   Dmitry Ganyushin       : Spin-Orbit,Spin-Spin,Magnetic field MRCI
   Miquel Garcia          : C-PCM and meta-GGA Hessian, CC/C-PCM, Gaussian charge scheme
   Yang Guo               : DLPNO-NEVPT2, F12-NEVPT2, CIM, IAO-localization
   Andreas Hansen         : Spin unrestricted coupled pair/coupled cluster methods
   Benjamin Helmich-Paris : MC-RPA, TRAH-SCF, COSX integrals
   Lee Huntington         : MR-EOM, pCC
   Robert Izsak           : Overlap fitted RIJCOSX, COSX-SCS-MP3, EOM
   Marcus Kettner         : VPT2
   Christian Kollmar      : KDIIS, OOCD, Brueckner-CCSD(T), CCSD density, CASPT2, CASPT2-K
   Simone Kossmann        : Meta GGA functionals, TD-DFT gradient, OOMP2, MP2 Hessian
   Martin Krupicka        : Initial AUTO-CI
   Lucas Lang             : DCDCAS
   Marvin Lechner         : AUTO-CI (C++ implementation), FIC-MRCC
   Dagmar Lenk            : GEPOL surface, SMD
   Dimitrios Liakos       : Extrapolation schemes; Compound Job, initial MDCI parallelization
   Dimitrios Manganas     : Further ROCIS development; embedding schemes
   Dimitrios Pantazis     : SARC Basis sets
   Anastasios Papadopoulos: AUTO-CI, single reference methods and gradients
   Taras Petrenko         : DFT Hessian,TD-DFT gradient, ASA, ECA, R-Raman, ABS, FL, XAS/XES, NRVS
   Peter Pinski           : DLPNO-MP2, DLPNO-MP2 Gradient
   Christoph Reimann      : Effective Core Potentials
   Marius Retegan         : Local ZFS, SOC
   Christoph Riplinger    : Optimizer, TS searches, QM/MM, DLPNO-CCSD(T), (RO)-DLPNO pert. Triples
   Tobias Risthaus        : Range-separated hybrids, TD-DFT gradient, RPA, STAB
   Michael Roemelt        : Original ROCIS implementation
   Masaaki Saitow         : Open-shell DLPNO-CCSD energy and density
   Barbara Sandhoefer     : DKH picture change effects
   Avijit Sen             : IP-ROCIS
   Kantharuban Sivalingam : CASSCF convergence, NEVPT2, FIC-MRCI
   Bernardo de Souza      : ESD, SOC TD-DFT
   Georgi Stoychev        : AutoAux, RI-MP2 NMR, DLPNO-MP2 response
   Willem Van den Heuvel  : Paramagnetic NMR
   Boris Wezisla          : Elementary symmetry handling
   Frank Wennmohs         : Technical directorship


 We gratefully acknowledge several colleagues who have allowed us to
 interface, adapt or use parts of their codes:
   Stefan Grimme, W. Hujo, H. Kruse, P. Pracht,  : VdW corrections, initial TS optimization,
                  C. Bannwarth, S. Ehlert          DFT functionals, gCP, sTDA/sTD-DF
   Ed Valeev, F. Pavosevic, A. Kumar             : LibInt (2-el integral package), F12 methods
   Garnet Chan, S. Sharma, J. Yang, R. Olivares  : DMRG
   Ulf Ekstrom                                   : XCFun DFT Library
   Mihaly Kallay                                 : mrcc  (arbitrary order and MRCC methods)
   Jiri Pittner, Ondrej Demel                    : Mk-CCSD
   Frank Weinhold                                : gennbo (NPA and NBO analysis)
   Christopher J. Cramer and Donald G. Truhlar   : smd solvation model
   Lars Goerigk                                  : TD-DFT with DH, B97 family of functionals
   V. Asgeirsson, H. Jonsson                     : NEB implementation
   FAccTs GmbH                                   : IRC, NEB, NEB-TS, DLPNO-Multilevel, CI-OPT
                                                   MM, QMMM, 2- and 3-layer-ONIOM, Crystal-QMMM,
                                                   LR-CPCM, SF, NACMEs, symmetry and pop. for TD-DFT,
                                                   nearIR, NL-DFT gradient (VV10), updates on ESD,
                                                   ML-optimized integration grids
   S Lehtola, MJT Oliveira, MAL Marques          : LibXC Library
   Liviu Ungur et al                             : ANISO software


 Your calculation uses the libint2 library for the computation of 2-el integrals
 For citations please refer to: http://libint.valeyev.net

 Your ORCA version has been built with support for libXC version: 5.1.0
 For citations please refer to: https://tddft.org/programs/libxc/

 This ORCA versions uses:
   CBLAS   interface :  Fast vector & matrix operations
   LAPACKE interface :  Fast linear algebra routines
   SCALAPACK package :  Parallel linear algebra routines
   Shared memory     :  Shared parallel matrices
   BLAS/LAPACK       :  OpenBLAS 0.3.15  USE64BITINT DYNAMIC_ARCH NO_AFFINITY Haswell SINGLE_THREADED
        Core in use  :  Haswell
   Copyright (c) 2011-2014, The OpenBLAS Project




***************************************
The coordinates will be read from file: h2o_4_ts.xyz
***************************************


Your calculation utilizes the geometrical counterpoise correction gCP
Please cite in your paper:
H.Kruse, S. Grimme J.Chem.Phys., 136, (2012), 154101 
   

Your calculation utilizes the atom-pairwise dispersion correction
with the Becke-Johnson damping scheme (D3BJ)
Cite in your paper:
S.Grimme, S.Ehrlich, L.Goerigk, J Comput Chem, (2011), 32, 1456–1465 
S.Grimme, J.Antony, S.Ehrlich and H.Krieg, J.Chem.Phys., 132, (2010), 154104 
   

Your calculation employs the composite approach PBEh-3c.
Please cite in your paper:
S. Grimme, J. G. Brandenburg, C. Bannwarth, A. Hansen J.Chem.Phys., 143, (2015), 054107 
   

================================================================================

----- Orbital basis set information -----
Your calculation utilizes the basis: def2-mSVP

----- AuxJ basis set information -----
Your calculation utilizes the auxiliary basis: def2/J
   F. Weigend, Phys. Chem. Chem. Phys. 8, 1057 (2006).

================================================================================
                                        WARNINGS
                       Please study these warnings very carefully!
================================================================================


INFO   : the flag for use of the SHARK integral package has been found!

================================================================================
                                       INPUT FILE
================================================================================
NAME = pbeh-3c.inp
|  1> ! PBEh-3c def2/J TightSCF DefGrid3
|  2> 
|  3> %maxcore 60000
|  4> 
|  5> %pal
|  6> nprocs 4
|  7> end
|  8> 
|  9> *xyzfile 0 1 h2o_4_ts.xyz
| 10> 
| 11>                          ****END OF INPUT****
================================================================================

                       ****************************
                       * Single Point Calculation *
                       ****************************

---------------------------------
CARTESIAN COORDINATES (ANGSTROEM)
---------------------------------
  O     -1.703649    0.000000    0.039217
  H      0.935877    0.935877    0.000000
  H     -0.935877    0.935877    0.000000
  O      0.000000    1.703649   -0.039217
  H     -0.935877   -0.935877    0.000000
  O      0.000000   -1.703649   -0.039217
  H      0.935877   -0.935877    0.000000
  O      1.703649    0.000000    0.039217
  H      2.295559    0.000000   -0.717948
  H      0.000000    2.295559    0.717948
  H     -2.295559    0.000000   -0.717948
  H      0.000000   -2.295559    0.717948

----------------------------
CARTESIAN COORDINATES (A.U.)
----------------------------
  NO LB      ZA    FRAG     MASS         X           Y           Z
   0 O     8.0000    0    15.999   -3.219430    0.000000    0.074109
   1 H     1.0000    0     1.008    1.768551    1.768551    0.000000
   2 H     1.0000    0     1.008   -1.768551    1.768551    0.000000
   3 O     8.0000    0    15.999    0.000000    3.219430   -0.074109
   4 H     1.0000    0     1.008   -1.768551   -1.768551    0.000000
   5 O     8.0000    0    15.999    0.000000   -3.219430   -0.074109
   6 H     1.0000    0     1.008    1.768551   -1.768551    0.000000
   7 O     8.0000    0    15.999    3.219430    0.000000    0.074109
   8 H     1.0000    0     1.008    4.337977    0.000000   -1.356725
   9 H     1.0000    0     1.008    0.000000    4.337977    1.356725
  10 H     1.0000    0     1.008   -4.337977    0.000000   -1.356725
  11 H     1.0000    0     1.008    0.000000   -4.337977    1.356725

--------------------------------
INTERNAL COORDINATES (ANGSTROEM)
--------------------------------
 O      0   0   0     0.000000000000     0.00000000     0.00000000
 H      1   0   0     2.800803455066     0.00000000     0.00000000
 H      1   2   0     1.211147137645    31.12153877     0.00000000
 O      2   1   3     1.211147137645    58.93911770   359.61131648
 H      1   2   3     1.211147137645    70.14317804   176.05530904
 O      5   1   2     1.211147137645   168.73526987     0.00000000
 H      6   5   1     1.211147137645   101.19744277     2.07721219
 O      2   1   3     1.211147137645   109.80159298   180.00000000
 H      8   2   1     0.961070244836   111.40224458   122.28036142
 H      4   2   1     0.961070244836   111.40224458   118.70323875
 H      1   2   3     0.961070244836   124.70773693    73.23945182
 H      6   5   1     0.961070244836   111.40224458   120.57566053

---------------------------
INTERNAL COORDINATES (A.U.)
---------------------------
 O      0   0   0     0.000000000000     0.00000000     0.00000000
 H      1   0   0     5.292751485015     0.00000000     0.00000000
 H      1   2   0     2.288736398032    31.12153877     0.00000000
 O      2   1   3     2.288736398032    58.93911770   359.61131648
 H      1   2   3     2.288736398032    70.14317804   176.05530904
 O      5   1   2     2.288736398032   168.73526987     0.00000000
 H      6   5   1     2.288736398032   101.19744277     2.07721219
 O      2   1   3     2.288736398032   109.80159298   180.00000000
 H      8   2   1     1.816159558202   111.40224458   122.28036142
 H      4   2   1     1.816159558202   111.40224458   118.70323875
 H      1   2   3     1.816159558202   124.70773693    73.23945182
 H      6   5   1     1.816159558202   111.40224458   120.57566053

---------------------
BASIS SET INFORMATION
---------------------
There are 2 groups of distinct atoms

 Group   1 Type O   : 8s4p1d contracted to 4s2p1d pattern {5111/31/1}
 Group   2 Type H   : 4s contracted to 2s pattern {31}

Atom   0O    basis set group =>   1
Atom   1H    basis set group =>   2
Atom   2H    basis set group =>   2
Atom   3O    basis set group =>   1
Atom   4H    basis set group =>   2
Atom   5O    basis set group =>   1
Atom   6H    basis set group =>   2
Atom   7O    basis set group =>   1
Atom   8H    basis set group =>   2
Atom   9H    basis set group =>   2
Atom  10H    basis set group =>   2
Atom  11H    basis set group =>   2
---------------------------------
AUXILIARY/J BASIS SET INFORMATION
---------------------------------
There are 2 groups of distinct atoms

 Group   1 Type O   : 12s5p4d2f1g contracted to 6s4p3d1f1g pattern {711111/2111/211/2/1}
 Group   2 Type H   : 5s2p1d contracted to 3s1p1d pattern {311/2/1}

Atom   0O    basis set group =>   1
Atom   1H    basis set group =>   2
Atom   2H    basis set group =>   2
Atom   3O    basis set group =>   1
Atom   4H    basis set group =>   2
Atom   5O    basis set group =>   1
Atom   6H    basis set group =>   2
Atom   7O    basis set group =>   1
Atom   8H    basis set group =>   2
Atom   9H    basis set group =>   2
Atom  10H    basis set group =>   2
Atom  11H    basis set group =>   2


           ************************************************************
           *        Program running with 4 parallel MPI-processes     *
           *              working on a common directory               *
           ************************************************************
------------------------------------------------------------------------------
                           ORCA GTO INTEGRAL CALCULATION
                           -- RI-GTO INTEGRALS CHOSEN --
------------------------------------------------------------------------------
------------------------------------------------------------------------------
                   ___                                                        
                  /   \      - P O W E R E D   B Y -                         
                 /     \                                                     
                 |  |  |   _    _      __       _____    __    __             
                 |  |  |  | |  | |    /  \     |  _  \  |  |  /  |          
                  \  \/   | |  | |   /    \    | | | |  |  | /  /          
                 / \  \   | |__| |  /  /\  \   | |_| |  |  |/  /          
                |  |  |   |  __  | /  /__\  \  |    /   |      \           
                |  |  |   | |  | | |   __   |  |    \   |  |\   \          
                \     /   | |  | | |  |  |  |  | |\  \  |  | \   \       
                 \___/    |_|  |_| |__|  |__|  |_| \__\ |__|  \__/        
                                                                              
                      - O R C A' S   B I G   F R I E N D -                    
                                      &                                       
                       - I N T E G R A L  F E E D E R -                       
                                                                              
 v1 FN, 2020, v2 2021                                                         
------------------------------------------------------------------------------


Reading SHARK input file pbeh-3c.SHARKINP.tmp ... ok
----------------------
SHARK INTEGRAL PACKAGE
----------------------

Number of atoms                             ...     12
Number of basis functions                   ...     76
Number of shells                            ...     44
Maximum angular momentum                    ...      2
Integral batch strategy                     ... SHARK/LIBINT Hybrid
RI-J (if used) integral strategy            ... SPLIT-RIJ (Revised 2003 algorithm where possible)
Printlevel                                  ...      1
Contraction scheme used                     ... SEGMENTED contraction
Coulomb Range Separation                    ... NOT USED
Exchange Range Separation                   ... NOT USED
Finite Nucleus Model                        ... NOT USED
Auxiliary Coulomb fitting basis             ... AVAILABLE
   # of basis functions in Aux-J            ...    284
   # of shells in Aux-J                     ...    100
   Maximum angular momentum in Aux-J        ...      4
Auxiliary J/K fitting basis                 ... NOT available
Auxiliary Correlation fitting basis         ... NOT available
Auxiliary 'external' fitting basis          ... NOT available
Integral threshold                          ...     2.500000e-11
Primitive cut-off                           ...     2.500000e-12
Primitive pair pre-selection threshold      ...     2.500000e-12

Calculating pre-screening integrals         ... done (  0.0 sec) Dimension = 44
Organizing shell pair data                  ... done (  0.1 sec)
Shell pair information
Total number of shell pairs                 ...       990
Shell pairs after pre-screening             ...       938
Total number of primitive shell pairs       ...      3646
Primitive shell pairs kept                  ...      2578
          la=0 lb=0:    488 shell pairs
          la=1 lb=0:    248 shell pairs
          la=1 lb=1:     36 shell pairs
          la=2 lb=0:    124 shell pairs
          la=2 lb=1:     32 shell pairs
          la=2 lb=2:     10 shell pairs

Calculating one electron integrals          ... done (  0.0 sec)
Calculating RI/J V-Matrix + Cholesky decomp.... done (  0.3 sec)
Calculating Nuclear repulsion               ... done (  0.0 sec) ENN=    155.378470302201 Eh

SHARK setup successfully completed in   1.3 seconds

Maximum memory used throughout the entire GTOINT-calculation: 9.6 MB


           ************************************************************
           *        Program running with 4 parallel MPI-processes     *
           *              working on a common directory               *
           ************************************************************
-------------------------------------------------------------------------------
                                 ORCA SCF
-------------------------------------------------------------------------------

------------
SCF SETTINGS
------------
Hamiltonian:
 Density Functional     Method          .... DFT(GTOs)
 Exchange Functional    Exchange        .... PBE
   PBE kappa parameter   XKappa         ....  1.024500
   PBE mue parameter    XMuePBE         ....  0.123457
 Correlation Functional Correlation     .... PBE
   PBE beta parameter  CBetaPBE         ....  0.030000
 LDA part of GGA corr.  LDAOpt          .... PW91-LDA
 Gradients option       PostSCFGGA      .... off
 Hybrid DFT is turned on
   Fraction HF Exchange ScalHFX         ....  0.420000
   Scaling of DF-GGA-X  ScalDFX         ....  0.580000
   Scaling of DF-GGA-C  ScalDFC         ....  1.000000
   Scaling of DF-LDA-C  ScalLDAC        ....  1.000000
   Perturbative correction              ....  0.000000
   Density functional embedding theory  .... OFF
 RI-approximation to the Coulomb term is turned on
   Number of AuxJ basis functions       .... 284
   RIJ-ON(X) (HFX calculated with O(N)) .... on
   Number of AuxJ basis functions       .... 284
   RIJ-COSX (HFX calculated with COS-X)).... on


General Settings:
 Integral files         IntName         .... pbeh-3c
 Hartree-Fock type      HFTyp           .... RHF
 Total Charge           Charge          ....    0
 Multiplicity           Mult            ....    1
 Number of Electrons    NEL             ....   40
 Basis Dimension        Dim             ....   76
 Nuclear Repulsion      ENuc            ....    155.3784703022 Eh

Convergence Acceleration:
 DIIS                   CNVDIIS         .... on
   Start iteration      DIISMaxIt       ....    12
   Startup error        DIISStart       ....  0.200000
   # of expansion vecs  DIISMaxEq       ....     5
   Bias factor          DIISBfac        ....   1.050
   Max. coefficient     DIISMaxC        ....  10.000
 Trust-Rad. Augm. Hess. CNVTRAH         .... auto
   Auto Start mean grad. ratio tolernc. ....  1.125000
   Auto Start start iteration           ....    20
   Auto Start num. interpolation iter.  ....    10
   Max. Number of Micro iterations      ....    16
   Max. Number of Macro iterations      .... Maxiter - #DIIS iter
   Number of Davidson start vectors     ....     2
   Converg. threshold I  (grad. norm)   ....   1.000e-05
   Converg. threshold II (energy diff.) ....   1.000e-08
   Grad. Scal. Fac. for Micro threshold ....   0.100
   Minimum threshold for Micro iter.    ....   0.010
   NR start threshold (gradient norm)   ....   0.001
   Initial trust radius                 ....   0.400
   Minimum AH scaling param. (alpha)    ....   1.000
   Maximum AH scaling param. (alpha)    .... 1000.000
   Orbital update algorithm             .... Taylor
   White noise on init. David. guess    .... on
   Maximum white noise                  ....   0.010
   Quad. conv. algorithm                .... NR
   COSX micro iterations for RIJONX calc.... off
 SOSCF                  CNVSOSCF        .... on
   Start iteration      SOSCFMaxIt      ....   150
   Startup grad/error   SOSCFStart      ....  0.003300
 Level Shifting         CNVShift        .... on
   Level shift para.    LevelShift      ....    0.2500
   Turn off err/grad.   ShiftErr        ....    0.0010
 Zerner damping         CNVZerner       .... off
 Static damping         CNVDamp         .... on
   Fraction old density DampFac         ....    0.7000
   Max. Damping (<1)    DampMax         ....    0.9800
   Min. Damping (>=0)   DampMin         ....    0.0000
   Turn off err/grad.   DampErr         ....    0.1000
 Fernandez-Rico         CNVRico         .... off

SCF Procedure:
 Maximum # iterations   MaxIter         ....   125
 SCF integral mode      SCFMode         .... Direct
   Integral package                     .... SHARK and LIBINT hybrid scheme
 Reset frequency        DirectResetFreq ....    20
 Integral Threshold     Thresh          ....  2.500e-11 Eh
 Primitive CutOff       TCut            ....  2.500e-12 Eh

Convergence Tolerance:
 Convergence Check Mode ConvCheckMode   .... Total+1el-Energy
 Convergence forced     ConvForced      .... 0
 Energy Change          TolE            ....  1.000e-08 Eh
 1-El. energy change                    ....  1.000e-05 Eh
 Orbital Gradient       TolG            ....  1.000e-05
 Orbital Rotation angle TolX            ....  1.000e-05
 DIIS Error             TolErr          ....  5.000e-07


Diagonalization of the overlap matrix:
Smallest eigenvalue                        ... 2.346e-02
Time for diagonalization                   ...    0.002 sec
Threshold for overlap eigenvalues          ... 1.000e-08
Number of eigenvalues below threshold      ... 0
Time for construction of square roots      ...    0.058 sec
Total time needed                          ...    0.061 sec

--------------------------------
INITIAL GUESS: MINIMAL BASIS EHT
--------------------------------
The minimal basis has 28 functions
EHT matrix was diagonalized
Basis set overlap was calculated now projecting the orbitals
Using GuessMode=FMatrix for the initial guess
C*T matrix was formed
Effective Fockian was calculated
Effective Fockian was diagonalized
Initial density was built
                      ------------------
                      INITIAL GUESS DONE
                      ------------------
-------------------
DFT GRID GENERATION
-------------------

General Integration Accuracy     IntAcc      ... 4.959
Radial Grid Type                 RadialGrid  ... OptM3 with GC (2021)
Angular Grid (max. ang.)         AngularGrid ... 6 (Lebedev-590)
Angular grid pruning method      GridPruning ... 4 (adaptive)
Weight generation scheme         WeightScheme... Becke
Basis function cutoff            BFCut       ... 1.0000e-11
Integration weight cutoff        WCut        ... 1.0000e-14
Angular grids for H and He will be reduced by one unit
Partially contracted basis set               ... off
Rotationally invariant grid construction     ... off

Total number of grid points                  ...   128636
Total number of batches                      ...     2017
Average number of points per batch           ...       63
Average number of grid points per atom       ...    10720
Time for grid setup =    2.022 sec

--------------------
COSX GRID GENERATION
--------------------

GRIDX 1
-------
General Integration Accuracy     IntAcc      ... 4.020
Radial Grid Type                 RadialGrid  ... OptM3 with GC (2021)
Angular Grid (max. ang.)         AngularGrid ... 2 (Lebedev-110)
Angular grid pruning method      GridPruning ... 4 (adaptive)
Weight generation scheme         WeightScheme... Becke
Basis function cutoff            BFCut       ... 1.0000e-11
Integration weight cutoff        WCut        ... 1.0000e-14
Angular grids for H and He will be reduced by one unit
Partially contracted basis set               ... on
Rotationally invariant grid construction     ... off

Total number of grid points                  ...    13600
Total number of batches                      ...      219
Average number of points per batch           ...       62
Average number of grid points per atom       ...     1133
UseSFitting                                  ... on

GRIDX 2
-------
General Integration Accuracy     IntAcc      ... 4.338
Radial Grid Type                 RadialGrid  ... OptM3 with GC (2021)
Angular Grid (max. ang.)         AngularGrid ... 3 (Lebedev-194)
Angular grid pruning method      GridPruning ... 4 (adaptive)
Weight generation scheme         WeightScheme... Becke
Basis function cutoff            BFCut       ... 1.0000e-11
Integration weight cutoff        WCut        ... 1.0000e-14
Angular grids for H and He will be reduced by one unit
Partially contracted basis set               ... on
Rotationally invariant grid construction     ... off

Total number of grid points                  ...    29824
Total number of batches                      ...      471
Average number of points per batch           ...       63
Average number of grid points per atom       ...     2485
UseSFitting                                  ... on

GRIDX 3
-------
General Integration Accuracy     IntAcc      ... 4.871
Radial Grid Type                 RadialGrid  ... OptM3 with GC (2021)
Angular Grid (max. ang.)         AngularGrid ... 4 (Lebedev-302)
Angular grid pruning method      GridPruning ... 4 (adaptive)
Weight generation scheme         WeightScheme... Becke
Basis function cutoff            BFCut       ... 1.0000e-11
Integration weight cutoff        WCut        ... 1.0000e-14
Angular grids for H and He will be reduced by one unit
Partially contracted basis set               ... on
Rotationally invariant grid construction     ... off

Total number of grid points                  ...    59640
Total number of batches                      ...      939
Average number of points per batch           ...       63
Average number of grid points per atom       ...     4970
UseSFitting                                  ... on

Time for X-Grid setup             =    2.778 sec

--------------
SCF ITERATIONS
--------------
ITER       Energy         Delta-E        Max-DP      RMS-DP      [F,P]     Damp
               ***  Starting incremental Fock matrix formation  ***
  0   -304.1564425779   0.000000000000 0.14622608  0.00858495  0.4638051 0.7000
  1   -304.5036635581  -0.347220980232 0.08459477  0.00494415  0.2336062 0.7000
                               ***Turning on DIIS***
  2   -304.6843851573  -0.180721599172 0.04389588  0.00268969  0.1103736 0.7000
  3   -304.8027944056  -0.118409248297 0.06195384  0.00500427  0.0762987 0.0000
  4   -305.0843499085  -0.281555502857 0.01020752  0.00064962  0.0122303 0.0000
  5   -305.0851706873  -0.000820778793 0.00194869  0.00018390  0.0034739 0.0000
                      *** Initiating the SOSCF procedure ***
                           *** Shutting down DIIS ***
                      *** Re-Reading the Fockian *** 
                      *** Removing any level shift *** 
ITER      Energy       Delta-E        Grad      Rot      Max-DP    RMS-DP
  6   -305.08527381  -0.0001031198  0.001100  0.001100  0.001560  0.000126
               *** Restarting incremental Fock matrix formation ***
  7   -305.08520221   0.0000715946  0.000137  0.000265  0.000189  0.000017
  8   -305.08520250  -0.0000002921  0.000041  0.000136  0.000118  0.000008
  9   -305.08520253  -0.0000000232  0.000030  0.000040  0.000036  0.000003
                  ***Gradient check signals convergence***
              ***Rediagonalizing the Fockian in SOSCF/NRSCF***

               *****************************************************
               *                     SUCCESS                       *
               *           SCF CONVERGED AFTER  10 CYCLES          *
               *****************************************************

Old exchange energy                            =    -15.009402690 Eh
New exchange energy                            =    -15.009390633 Eh
Exchange energy change after final integration =      0.000012057 Eh
Total energy after final integration           =   -305.085190480 Eh
Final COS-X integration done in                =     1.457 sec

----------------
TOTAL SCF ENERGY
----------------

Total Energy       :         -305.08519048 Eh           -8301.79009 eV

Components:
Nuclear Repulsion  :          155.37847030 Eh            4228.06313 eV
Electronic Energy  :         -460.46366078 Eh          -12529.85322 eV
One Electron Energy:         -730.02966367 Eh          -19865.11707 eV
Two Electron Energy:          269.56600289 Eh            7335.26386 eV
Max COSX asymmetry :            0.00000118 Eh               0.00003 eV

Virial components:
Potential Energy   :         -608.23797079 Eh          -16550.99662 eV
Kinetic Energy     :          303.15278031 Eh            8249.20653 eV
Virial Ratio       :            2.00637438


DFT components:
N(Alpha)           :       20.000011769868 electrons
N(Beta)            :       20.000011769868 electrons
N(Total)           :       40.000023539737 electrons
E(X)               :      -20.027409097066 Eh       
E(C)               :       -1.798811508713 Eh       
E(XC)              :      -21.826220605779 Eh       
DFET-embed. en.    :        0.000000000000 Eh       

---------------
SCF CONVERGENCE
---------------

  Last Energy change         ...   -9.5146e-09  Tolerance :   1.0000e-08
  Last MAX-Density change    ...    1.1102e-15  Tolerance :   1.0000e-07
  Last RMS-Density change    ...    6.2327e-17  Tolerance :   5.0000e-09
  Last Orbital Gradient      ...    2.3613e-06  Tolerance :   1.0000e-05
  Last Orbital Rotation      ...    2.2730e-06  Tolerance :   1.0000e-05

             **** THE GBW FILE WAS UPDATED (pbeh-3c.gbw) ****
             **** DENSITY pbeh-3c.scfp WAS UPDATED ****
             **** ENERGY FILE WAS UPDATED (pbeh-3c.en.tmp) ****
             **** THE GBW FILE WAS UPDATED (pbeh-3c.gbw) ****
             **** DENSITY pbeh-3c.scfp WAS UPDATED ****
----------------
ORBITAL ENERGIES
----------------

  NO   OCC          E(Eh)            E(eV) 
   0   2.0000     -19.472058      -529.8616 
   1   2.0000     -19.472014      -529.8604 
   2   2.0000     -19.472014      -529.8604 
   3   2.0000     -19.471896      -529.8572 
   4   2.0000      -1.124171       -30.5902 
   5   2.0000      -1.086527       -29.5659 
   6   2.0000      -1.086527       -29.5659 
   7   2.0000      -1.048330       -28.5265 
   8   2.0000      -0.614323       -16.7166 
   9   2.0000      -0.587648       -15.9907 
  10   2.0000      -0.587648       -15.9907 
  11   2.0000      -0.572676       -15.5833 
  12   2.0000      -0.506164       -13.7734 
  13   2.0000      -0.439042       -11.9469 
  14   2.0000      -0.439042       -11.9469 
  15   2.0000      -0.390478       -10.6254 
  16   2.0000      -0.352755        -9.5989 
  17   2.0000      -0.352755        -9.5989 
  18   2.0000      -0.349652        -9.5145 
  19   2.0000      -0.334477        -9.1016 
  20   0.0000       0.125201         3.4069 
  21   0.0000       0.163371         4.4455 
  22   0.0000       0.163371         4.4455 
  23   0.0000       0.185179         5.0390 
  24   0.0000       0.324843         8.8394 
  25   0.0000       0.367554        10.0016 
  26   0.0000       0.367554        10.0016 
  27   0.0000       0.406171        11.0525 
  28   0.0000       0.795120        21.6363 
  29   0.0000       0.811618        22.0853 
  30   0.0000       0.811618        22.0853 
  31   0.0000       0.813193        22.1281 
  32   0.0000       0.835633        22.7387 
  33   0.0000       0.869775        23.6678 
  34   0.0000       0.941774        25.6270 
  35   0.0000       0.941774        25.6270 
  36   0.0000       0.979642        26.6574 
  37   0.0000       1.041319        28.3357 
  38   0.0000       1.041319        28.3357 
  39   0.0000       1.083082        29.4722 
  40   0.0000       1.198671        32.6175 
  41   0.0000       1.205327        32.7986 
  42   0.0000       1.205327        32.7986 
  43   0.0000       1.234574        33.5945 
  44   0.0000       1.234574        33.5945 
  45   0.0000       1.244749        33.8713 
  46   0.0000       1.289221        35.0815 
  47   0.0000       1.422579        38.7103 
  48   0.0000       1.722964        46.8842 
  49   0.0000       1.768498        48.1233 
  50   0.0000       1.770589        48.1802 
  51   0.0000       1.793244        48.7966 
  52   0.0000       1.793244        48.7966 
  53   0.0000       1.810698        49.2716 
  54   0.0000       1.810698        49.2716 
  55   0.0000       1.821865        49.5755 
  56   0.0000       1.844824        50.2002 
  57   0.0000       1.873798        50.9886 
  58   0.0000       1.873798        50.9886 
  59   0.0000       1.883322        51.2478 
  60   0.0000       1.953966        53.1701 
  61   0.0000       1.961037        53.3625 
  62   0.0000       1.961037        53.3625 
  63   0.0000       1.962676        53.4071 
  64   0.0000       2.552527        69.4578 
  65   0.0000       2.593470        70.5719 
  66   0.0000       2.602684        70.8226 
  67   0.0000       2.602684        70.8226 
  68   0.0000       2.778628        75.6103 
  69   0.0000       2.898320        78.8673 
  70   0.0000       2.898320        78.8673 
  71   0.0000       3.011472        81.9463 
  72   0.0000      25.261637       687.4041 
  73   0.0000      25.576955       695.9843 
  74   0.0000      25.576955       695.9843 
  75   0.0000      25.721192       699.9092 

                    ********************************
                    * MULLIKEN POPULATION ANALYSIS *
                    ********************************

-----------------------
MULLIKEN ATOMIC CHARGES
-----------------------
   0 O :   -0.901252
   1 H :    0.478428
   2 H :    0.478428
   3 O :   -0.901252
   4 H :    0.478428
   5 O :   -0.901252
   6 H :    0.478428
   7 O :   -0.901252
   8 H :    0.422824
   9 H :    0.422824
  10 H :    0.422824
  11 H :    0.422824
Sum of atomic charges:   -0.0000000

--------------------------------
MULLIKEN REDUCED ORBITAL CHARGES
--------------------------------
  0 O s       :     3.829229  s :     3.829229
      pz      :     1.691155  p :     5.054593
      px      :     1.653377
      py      :     1.710061
      dz2     :     0.005262  d :     0.017431
      dxz     :     0.007188
      dyz     :     0.001158
      dx2y2   :     0.000733
      dxy     :     0.003091
  1 H s       :     0.521572  s :     0.521572
  2 H s       :     0.521572  s :     0.521572
  3 O s       :     3.829229  s :     3.829229
      pz      :     1.691155  p :     5.054593
      px      :     1.710061
      py      :     1.653377
      dz2     :     0.005262  d :     0.017431
      dxz     :     0.001158
      dyz     :     0.007188
      dx2y2   :     0.000733
      dxy     :     0.003091
  4 H s       :     0.521572  s :     0.521572
  5 O s       :     3.829229  s :     3.829229
      pz      :     1.691155  p :     5.054593
      px      :     1.710061
      py      :     1.653377
      dz2     :     0.005262  d :     0.017431
      dxz     :     0.001158
      dyz     :     0.007188
      dx2y2   :     0.000733
      dxy     :     0.003091
  6 H s       :     0.521572  s :     0.521572
  7 O s       :     3.829229  s :     3.829229
      pz      :     1.691155  p :     5.054593
      px      :     1.653377
      py      :     1.710061
      dz2     :     0.005262  d :     0.017431
      dxz     :     0.007188
      dyz     :     0.001158
      dx2y2   :     0.000733
      dxy     :     0.003091
  8 H s       :     0.577176  s :     0.577176
  9 H s       :     0.577176  s :     0.577176
 10 H s       :     0.577176  s :     0.577176
 11 H s       :     0.577176  s :     0.577176


                     *******************************
                     * LOEWDIN POPULATION ANALYSIS *
                     *******************************

----------------------
LOEWDIN ATOMIC CHARGES
----------------------
   0 O :   -0.653804
   1 H :    0.348220
   2 H :    0.348220
   3 O :   -0.653804
   4 H :    0.348220
   5 O :   -0.653804
   6 H :    0.348220
   7 O :   -0.653804
   8 H :    0.305584
   9 H :    0.305584
  10 H :    0.305584
  11 H :    0.305584

-------------------------------
LOEWDIN REDUCED ORBITAL CHARGES
-------------------------------
  0 O s       :     3.593020  s :     3.593020
      pz      :     1.694802  p :     5.033742
      px      :     1.636080
      py      :     1.702860
      dz2     :     0.007403  d :     0.027041
      dxz     :     0.009515
      dyz     :     0.001157
      dx2y2   :     0.001530
      dxy     :     0.007437
  1 H s       :     0.651780  s :     0.651780
  2 H s       :     0.651780  s :     0.651780
  3 O s       :     3.593021  s :     3.593021
      pz      :     1.694802  p :     5.033742
      px      :     1.702860
      py      :     1.636080
      dz2     :     0.007403  d :     0.027041
      dxz     :     0.001157
      dyz     :     0.009515
      dx2y2   :     0.001530
      dxy     :     0.007437
  4 H s       :     0.651780  s :     0.651780
  5 O s       :     3.593020  s :     3.593020
      pz      :     1.694802  p :     5.033742
      px      :     1.702860
      py      :     1.636080
      dz2     :     0.007403  d :     0.027041
      dxz     :     0.001157
      dyz     :     0.009515
      dx2y2   :     0.001530
      dxy     :     0.007437
  6 H s       :     0.651780  s :     0.651780
  7 O s       :     3.593020  s :     3.593020
      pz      :     1.694802  p :     5.033742
      px      :     1.636080
      py      :     1.702860
      dz2     :     0.007403  d :     0.027041
      dxz     :     0.009515
      dyz     :     0.001157
      dx2y2   :     0.001530
      dxy     :     0.007437
  8 H s       :     0.694416  s :     0.694416
  9 H s       :     0.694416  s :     0.694416
 10 H s       :     0.694416  s :     0.694416
 11 H s       :     0.694416  s :     0.694416


                      *****************************
                      * MAYER POPULATION ANALYSIS *
                      *****************************

  NA   - Mulliken gross atomic population
  ZA   - Total nuclear charge
  QA   - Mulliken gross atomic charge
  VA   - Mayer's total valence
  BVA  - Mayer's bonded valence
  FA   - Mayer's free valence

  ATOM       NA         ZA         QA         VA         BVA        FA
  0 O      8.9013     8.0000    -0.9013     1.6314     1.6314    -0.0000
  1 H      0.5216     1.0000     0.4784     0.7705     0.7705    -0.0000
  2 H      0.5216     1.0000     0.4784     0.7705     0.7705    -0.0000
  3 O      8.9013     8.0000    -0.9013     1.6314     1.6314    -0.0000
  4 H      0.5216     1.0000     0.4784     0.7705     0.7705    -0.0000
  5 O      8.9013     8.0000    -0.9013     1.6314     1.6314    -0.0000
  6 H      0.5216     1.0000     0.4784     0.7705     0.7705    -0.0000
  7 O      8.9013     8.0000    -0.9013     1.6314     1.6314    -0.0000
  8 H      0.5772     1.0000     0.4228     0.8021     0.8021     0.0000
  9 H      0.5772     1.0000     0.4228     0.8021     0.8021     0.0000
 10 H      0.5772     1.0000     0.4228     0.8021     0.8021    -0.0000
 11 H      0.5772     1.0000     0.4228     0.8021     0.8021    -0.0000

  Mayer bond orders larger than 0.100000
B(  0-O ,  2-H ) :   0.3844 B(  0-O ,  4-H ) :   0.3844 B(  0-O , 10-H ) :   0.7947 
B(  1-H ,  3-O ) :   0.3844 B(  1-H ,  7-O ) :   0.3844 B(  2-H ,  3-O ) :   0.3844 
B(  3-O ,  9-H ) :   0.7947 B(  4-H ,  5-O ) :   0.3844 B(  5-O ,  6-H ) :   0.3844 
B(  5-O , 11-H ) :   0.7947 B(  6-H ,  7-O ) :   0.3844 B(  7-O ,  8-H ) :   0.7947 


-------
TIMINGS
-------

Total SCF time: 0 days 0 hours 0 min 47 sec 

Total time                  ....      47.413 sec
Sum of individual times     ....      42.505 sec  ( 89.6%)

Fock matrix formation       ....      35.115 sec  ( 74.1%)
  Split-RI-J                ....       3.648 sec  ( 10.4% of F)
  Chain of spheres X        ....       8.055 sec  ( 22.9% of F)
  XC integration            ....      12.359 sec  ( 35.2% of F)
    Basis function eval.    ....       1.057 sec  (  8.6% of XC)
    Density eval.           ....       0.788 sec  (  6.4% of XC)
    XC-Functional eval.     ....       0.801 sec  (  6.5% of XC)
    XC-Potential eval.      ....       0.282 sec  (  2.3% of XC)
Diagonalization             ....       0.463 sec  (  1.0%)
Density matrix formation    ....       0.046 sec  (  0.1%)
Population analysis         ....       0.917 sec  (  1.9%)
Initial guess               ....       0.008 sec  (  0.0%)
Orbital Transformation      ....       0.000 sec  (  0.0%)
Orbital Orthonormalization  ....       0.000 sec  (  0.0%)
DIIS solution               ....       0.838 sec  (  1.8%)
SOSCF solution              ....       0.318 sec  (  0.7%)
Grid generation             ....       4.800 sec  ( 10.1%)

Maximum memory used throughout the entire SCF-calculation: 48.8 MB


-------------------------------------------------------------------------------
                          DFT DISPERSION CORRECTION                            
                                                                               
                              DFTD3 V3.1  Rev 1                                
                          USING Becke-Johnson damping                          
-------------------------------------------------------------------------------
The PBEh-3c composite method is recognized
Using three-body term ABC
Active option DFTDOPT                   ...         4   

molecular C6(AA) [au] = 707.584759 


            DFT-D V3
 parameters
 s6 scaling factor         :     1.0000 
 a1 scaling factor         :     0.4860 
 s8 scaling factor         :     0.0000 
 a2 scaling factor         :     4.5000 
 Damping factor alpha9(ATM):    16.0000 
 ad hoc parameters k1-k3   :    16.0000     1.3333    -4.0000 

 Edisp/kcal,au: -2.157121558845  -0.003437591651 
 E6   /kcal   :  -2.168940258 
 E8   /kcal   :  -0.000000000 
 E6(ABC)      :   0.011818700 
 % E8         :   0.000000000 
 % E6(ABC)    :  -0.547892145 

-------------------------   ----------------
Dispersion correction           -0.003437592
-------------------------   ----------------

------------------   -----------------
gCP correction             0.031479399
------------------   -----------------

-------------------------   --------------------
FINAL SINGLE POINT ENERGY      -305.057148672879
-------------------------   --------------------


                            ***************************************
                            *     ORCA property calculations      *
                            ***************************************

                                    ---------------------
                                    Active property flags
                                    ---------------------
   (+) Dipole Moment


------------------------------------------------------------------------------
                       ORCA ELECTRIC PROPERTIES CALCULATION
------------------------------------------------------------------------------

Dipole Moment Calculation                       ... on
Quadrupole Moment Calculation                   ... off
Polarizability Calculation                      ... off
GBWName                                         ... pbeh-3c.gbw
Electron density                                ... pbeh-3c.scfp
The origin for moment calculation is the CENTER OF MASS  = ( 0.000000, -0.000000  0.000000)

-------------
DIPOLE MOMENT
-------------
                                X             Y             Z
Electronic contribution:     -0.00000       0.00000      -0.00000
Nuclear contribution   :      0.00000       0.00000       0.00000
                        -----------------------------------------
Total Dipole Moment    :     -0.00000       0.00000      -0.00000
                        -----------------------------------------
Magnitude (a.u.)       :      0.00000
Magnitude (Debye)      :      0.00000



--------------------
Rotational spectrum 
--------------------
 
Rotational constants in cm-1:     0.154369     0.154369     0.078754 
Rotational constants in MHz :  4627.876486  4627.876486  2360.999295 

 Dipole components along the rotational axes: 
x,y,z [a.u.] :    -0.000000     0.000000    -0.000000 
x,y,z [Debye]:    -0.000000     0.000000    -0.000000 

 

Timings for individual modules:

Sum of individual times         ...       50.380 sec (=   0.840 min)
GTO integral calculation        ...        1.961 sec (=   0.033 min)   3.9 %
SCF iterations                  ...       48.419 sec (=   0.807 min)  96.1 %
                             ****ORCA TERMINATED NORMALLY****
TOTAL RUN TIME: 0 days 0 hours 0 minutes 58 seconds 525 msec
