
                                 *****************
                                 * O   R   C   A *
                                 *****************

                                            #,                                       
                                            ###                                      
                                            ####                                     
                                            #####                                    
                                            ######                                   
                                           ########,                                 
                                     ,,################,,,,,                         
                               ,,#################################,,                 
                          ,,##########################################,,             
                       ,#########################################, ''#####,          
                    ,#############################################,,   '####,        
                  ,##################################################,,,,####,       
                ,###########''''           ''''###############################       
              ,#####''   ,,,,##########,,,,          '''####'''          '####       
            ,##' ,,,,###########################,,,                        '##       
           ' ,,###''''                  '''############,,,                           
         ,,##''                                '''############,,,,        ,,,,,,###''
      ,#''                                            '''#######################'''  
     '                                                          ''''####''''         
             ,#######,   #######,   ,#######,      ##                                
            ,#'     '#,  ##    ##  ,#'     '#,    #''#        ######   ,####,        
            ##       ##  ##   ,#'  ##            #'  '#       #        #'  '#        
            ##       ##  #######   ##           ,######,      #####,   #    #        
            '#,     ,#'  ##    ##  '#,     ,#' ,#      #,         ##   #,  ,#        
             '#######'   ##     ##  '#######'  #'      '#     #####' # '####'        



                  #######################################################
                  #                        -***-                        #
                  #          Department of theory and spectroscopy      #
                  #    Directorship and core code : Frank Neese         #
                  #        Max Planck Institute fuer Kohlenforschung    #
                  #                Kaiser Wilhelm Platz 1               #
                  #                 D-45470 Muelheim/Ruhr               #
                  #                      Germany                        #
                  #                                                     #
                  #                  All rights reserved                #
                  #                        -***-                        #
                  #######################################################


                         Program Version 5.0.3 -  RELEASE  -


 With contributions from (in alphabetic order):
   Daniel Aravena         : Magnetic Suceptibility
   Michael Atanasov       : Ab Initio Ligand Field Theory (pilot matlab implementation)
   Alexander A. Auer      : GIAO ZORA, VPT2 properties, NMR spectrum
   Ute Becker             : Parallelization
   Giovanni Bistoni       : ED, misc. LED, open-shell LED, HFLD
   Martin Brehm           : Molecular dynamics
   Dmytro Bykov           : SCF Hessian
   Vijay G. Chilkuri      : MRCI spin determinant printing, contributions to CSF-ICE
   Dipayan Datta          : RHF DLPNO-CCSD density
   Achintya Kumar Dutta   : EOM-CC, STEOM-CC
   Dmitry Ganyushin       : Spin-Orbit,Spin-Spin,Magnetic field MRCI
   Miquel Garcia          : C-PCM and meta-GGA Hessian, CC/C-PCM, Gaussian charge scheme
   Yang Guo               : DLPNO-NEVPT2, F12-NEVPT2, CIM, IAO-localization
   Andreas Hansen         : Spin unrestricted coupled pair/coupled cluster methods
   Benjamin Helmich-Paris : MC-RPA, TRAH-SCF, COSX integrals
   Lee Huntington         : MR-EOM, pCC
   Robert Izsak           : Overlap fitted RIJCOSX, COSX-SCS-MP3, EOM
   Marcus Kettner         : VPT2
   Christian Kollmar      : KDIIS, OOCD, Brueckner-CCSD(T), CCSD density, CASPT2, CASPT2-K
   Simone Kossmann        : Meta GGA functionals, TD-DFT gradient, OOMP2, MP2 Hessian
   Martin Krupicka        : Initial AUTO-CI
   Lucas Lang             : DCDCAS
   Marvin Lechner         : AUTO-CI (C++ implementation), FIC-MRCC
   Dagmar Lenk            : GEPOL surface, SMD
   Dimitrios Liakos       : Extrapolation schemes; Compound Job, initial MDCI parallelization
   Dimitrios Manganas     : Further ROCIS development; embedding schemes
   Dimitrios Pantazis     : SARC Basis sets
   Anastasios Papadopoulos: AUTO-CI, single reference methods and gradients
   Taras Petrenko         : DFT Hessian,TD-DFT gradient, ASA, ECA, R-Raman, ABS, FL, XAS/XES, NRVS
   Peter Pinski           : DLPNO-MP2, DLPNO-MP2 Gradient
   Christoph Reimann      : Effective Core Potentials
   Marius Retegan         : Local ZFS, SOC
   Christoph Riplinger    : Optimizer, TS searches, QM/MM, DLPNO-CCSD(T), (RO)-DLPNO pert. Triples
   Tobias Risthaus        : Range-separated hybrids, TD-DFT gradient, RPA, STAB
   Michael Roemelt        : Original ROCIS implementation
   Masaaki Saitow         : Open-shell DLPNO-CCSD energy and density
   Barbara Sandhoefer     : DKH picture change effects
   Avijit Sen             : IP-ROCIS
   Kantharuban Sivalingam : CASSCF convergence, NEVPT2, FIC-MRCI
   Bernardo de Souza      : ESD, SOC TD-DFT
   Georgi Stoychev        : AutoAux, RI-MP2 NMR, DLPNO-MP2 response
   Willem Van den Heuvel  : Paramagnetic NMR
   Boris Wezisla          : Elementary symmetry handling
   Frank Wennmohs         : Technical directorship


 We gratefully acknowledge several colleagues who have allowed us to
 interface, adapt or use parts of their codes:
   Stefan Grimme, W. Hujo, H. Kruse, P. Pracht,  : VdW corrections, initial TS optimization,
                  C. Bannwarth, S. Ehlert          DFT functionals, gCP, sTDA/sTD-DF
   Ed Valeev, F. Pavosevic, A. Kumar             : LibInt (2-el integral package), F12 methods
   Garnet Chan, S. Sharma, J. Yang, R. Olivares  : DMRG
   Ulf Ekstrom                                   : XCFun DFT Library
   Mihaly Kallay                                 : mrcc  (arbitrary order and MRCC methods)
   Jiri Pittner, Ondrej Demel                    : Mk-CCSD
   Frank Weinhold                                : gennbo (NPA and NBO analysis)
   Christopher J. Cramer and Donald G. Truhlar   : smd solvation model
   Lars Goerigk                                  : TD-DFT with DH, B97 family of functionals
   V. Asgeirsson, H. Jonsson                     : NEB implementation
   FAccTs GmbH                                   : IRC, NEB, NEB-TS, DLPNO-Multilevel, CI-OPT
                                                   MM, QMMM, 2- and 3-layer-ONIOM, Crystal-QMMM,
                                                   LR-CPCM, SF, NACMEs, symmetry and pop. for TD-DFT,
                                                   nearIR, NL-DFT gradient (VV10), updates on ESD,
                                                   ML-optimized integration grids
   S Lehtola, MJT Oliveira, MAL Marques          : LibXC Library
   Liviu Ungur et al                             : ANISO software


 Your calculation uses the libint2 library for the computation of 2-el integrals
 For citations please refer to: http://libint.valeyev.net

 Your ORCA version has been built with support for libXC version: 5.1.0
 For citations please refer to: https://tddft.org/programs/libxc/

 This ORCA versions uses:
   CBLAS   interface :  Fast vector & matrix operations
   LAPACKE interface :  Fast linear algebra routines
   SCALAPACK package :  Parallel linear algebra routines
   Shared memory     :  Shared parallel matrices
   BLAS/LAPACK       :  OpenBLAS 0.3.15  USE64BITINT DYNAMIC_ARCH NO_AFFINITY Haswell SINGLE_THREADED
        Core in use  :  Haswell
   Copyright (c) 2011-2014, The OpenBLAS Project




***************************************
The coordinates will be read from file: 15-Hexadiene.xyz
***************************************


Your calculation utilizes the geometrical counterpoise correction gCP
Please cite in your paper:
H.Kruse, S. Grimme J.Chem.Phys., 136, (2012), 154101 
   

Your calculation utilizes the atom-pairwise dispersion correction
with the Becke-Johnson damping scheme (D3BJ)
Cite in your paper:
S.Grimme, S.Ehrlich, L.Goerigk, J Comput Chem, (2011), 32, 1456–1465 
S.Grimme, J.Antony, S.Ehrlich and H.Krieg, J.Chem.Phys., 132, (2010), 154104 
   

Your calculation employs the composite approach PBEh-3c.
Please cite in your paper:
S. Grimme, J. G. Brandenburg, C. Bannwarth, A. Hansen J.Chem.Phys., 143, (2015), 054107 
   

================================================================================

----- Orbital basis set information -----
Your calculation utilizes the basis: def2-mSVP

----- AuxJ basis set information -----
Your calculation utilizes the auxiliary basis: def2/J
   F. Weigend, Phys. Chem. Chem. Phys. 8, 1057 (2006).

================================================================================
                                        WARNINGS
                       Please study these warnings very carefully!
================================================================================


INFO   : the flag for use of the SHARK integral package has been found!

================================================================================
                                       INPUT FILE
================================================================================
NAME = pbeh-3c.inp
|  1> ! PBEh-3c def2/J TightSCF DefGrid3
|  2> 
|  3> %maxcore 60000
|  4> 
|  5> %pal
|  6> nprocs 4
|  7> end
|  8> 
|  9> *xyzfile 0 1 15-Hexadiene.xyz
| 10> 
| 11>                          ****END OF INPUT****
================================================================================

                       ****************************
                       * Single Point Calculation *
                       ****************************

---------------------------------
CARTESIAN COORDINATES (ANGSTROEM)
---------------------------------
  C      0.212010   -0.489573    0.560190
  C     -0.213063    0.490205   -0.560495
  C      0.440945    0.181311   -1.879436
  C     -0.202484   -0.151118   -2.999141
  C     -0.440946   -0.179941    1.879479
  C      0.203558    0.149622    2.999412
  H     -0.053027   -1.508883    0.243770
  H      1.303951   -0.468970    0.673100
  H     -1.304916    0.468789   -0.674088
  H      0.051050    1.509626   -0.243685
  H      1.531750    0.228337   -1.890037
  H     -1.288607   -0.212544   -3.036997
  H      0.327674   -0.370219   -3.922273
  H     -1.531878   -0.223976    1.890205
  H     -0.325866    0.369246    3.922840
  H      1.289847    0.208086    3.037156

----------------------------
CARTESIAN COORDINATES (A.U.)
----------------------------
  NO LB      ZA    FRAG     MASS         X           Y           Z
   0 C     6.0000    0    12.011    0.400642   -0.925159    1.058606
   1 C     6.0000    0    12.011   -0.402630    0.926354   -1.059182
   2 C     6.0000    0    12.011    0.833264    0.342629   -3.551619
   3 C     6.0000    0    12.011   -0.382639   -0.285571   -5.667555
   4 C     6.0000    0    12.011   -0.833267   -0.340039    3.551700
   5 C     6.0000    0    12.011    0.384670    0.282745    5.668067
   6 H     1.0000    0     1.008   -0.100206   -2.851376    0.460659
   7 H     1.0000    0     1.008    2.464110   -0.886225    1.271975
   8 H     1.0000    0     1.008   -2.465934    0.885883   -1.273842
   9 H     1.0000    0     1.008    0.096471    2.852779   -0.460498
  10 H     1.0000    0     1.008    2.894588    0.431495   -3.571652
  11 H     1.0000    0     1.008   -2.435114   -0.401650   -5.739092
  12 H     1.0000    0     1.008    0.619215   -0.699612   -7.412022
  13 H     1.0000    0     1.008   -2.894830   -0.423253    3.571971
  14 H     1.0000    0     1.008   -0.615797    0.697774    7.413093
  15 H     1.0000    0     1.008    2.437457    0.393226    5.739393

--------------------------------
INTERNAL COORDINATES (ANGSTROEM)
--------------------------------
 C      0   0   0     0.000000000000     0.00000000     0.00000000
 C      1   0   0     1.548091792863     0.00000000     0.00000000
 C      2   1   0     1.504242254897   112.66819030     0.00000000
 C      3   2   1     1.333509997687   125.28480863   118.54574632
 C      1   2   3     1.504242573139   112.67121625   179.94517502
 C      5   1   2     1.333509691434   125.28558074   241.30826708
 H      1   2   3     1.099708859143   108.18922684   301.50742703
 H      1   2   3     1.097955725243   109.61164254    57.44582139
 H      2   1   3     1.097955220464   109.60922206   122.49521626
 H      2   1   3     1.099700921663   108.19161335   238.43730363
 H      3   2   1     1.091869972932   115.72295278   299.33668334
 H      4   3   2     1.088517364590   121.64907268     0.72508797
 H      4   3   2     1.086851511722   121.87545429   180.42828702
 H      5   1   2     1.091873359386   115.72277784    60.52803737
 H      6   5   1     1.086850701892   121.87498186   179.58459465
 H      6   5   1     1.088515006580   121.64943539   359.28977707

---------------------------
INTERNAL COORDINATES (A.U.)
---------------------------
 C      0   0   0     0.000000000000     0.00000000     0.00000000
 C      1   0   0     2.925469518683     0.00000000     0.00000000
 C      2   1   0     2.842605900828   112.66819030     0.00000000
 C      3   2   1     2.519968692474   125.28480863   118.54574632
 C      1   2   3     2.842606502217   112.67121625   179.94517502
 C      5   1   2     2.519968113740   125.28558074   241.30826708
 H      1   2   3     2.078148570827   108.18922684   301.50742703
 H      1   2   3     2.074835627880   109.61164254    57.44582139
 H      2   1   3     2.074834673986   109.60922206   122.49521626
 H      2   1   3     2.078133571163   108.19161335   238.43730363
 H      3   2   1     2.063335222693   115.72295278   299.33668334
 H      4   3   2     2.056999711094   121.64907268     0.72508797
 H      4   3   2     2.053851705392   121.87545429   180.42828702
 H      5   1   2     2.063341622164   115.72277784    60.52803737
 H      6   5   1     2.053850175035   121.87498186   179.58459465
 H      6   5   1     2.056995255099   121.64943539   359.28977707

---------------------
BASIS SET INFORMATION
---------------------
There are 2 groups of distinct atoms

 Group   1 Type C   : 8s4p1d contracted to 4s2p1d pattern {5111/31/1}
 Group   2 Type H   : 4s contracted to 2s pattern {31}

Atom   0C    basis set group =>   1
Atom   1C    basis set group =>   1
Atom   2C    basis set group =>   1
Atom   3C    basis set group =>   1
Atom   4C    basis set group =>   1
Atom   5C    basis set group =>   1
Atom   6H    basis set group =>   2
Atom   7H    basis set group =>   2
Atom   8H    basis set group =>   2
Atom   9H    basis set group =>   2
Atom  10H    basis set group =>   2
Atom  11H    basis set group =>   2
Atom  12H    basis set group =>   2
Atom  13H    basis set group =>   2
Atom  14H    basis set group =>   2
Atom  15H    basis set group =>   2
---------------------------------
AUXILIARY/J BASIS SET INFORMATION
---------------------------------
There are 2 groups of distinct atoms

 Group   1 Type C   : 12s5p4d2f1g contracted to 6s4p3d1f1g pattern {711111/2111/211/2/1}
 Group   2 Type H   : 5s2p1d contracted to 3s1p1d pattern {311/2/1}

Atom   0C    basis set group =>   1
Atom   1C    basis set group =>   1
Atom   2C    basis set group =>   1
Atom   3C    basis set group =>   1
Atom   4C    basis set group =>   1
Atom   5C    basis set group =>   1
Atom   6H    basis set group =>   2
Atom   7H    basis set group =>   2
Atom   8H    basis set group =>   2
Atom   9H    basis set group =>   2
Atom  10H    basis set group =>   2
Atom  11H    basis set group =>   2
Atom  12H    basis set group =>   2
Atom  13H    basis set group =>   2
Atom  14H    basis set group =>   2
Atom  15H    basis set group =>   2


           ************************************************************
           *        Program running with 4 parallel MPI-processes     *
           *              working on a common directory               *
           ************************************************************
------------------------------------------------------------------------------
                           ORCA GTO INTEGRAL CALCULATION
                           -- RI-GTO INTEGRALS CHOSEN --
------------------------------------------------------------------------------
------------------------------------------------------------------------------
                   ___                                                        
                  /   \      - P O W E R E D   B Y -                         
                 /     \                                                     
                 |  |  |   _    _      __       _____    __    __             
                 |  |  |  | |  | |    /  \     |  _  \  |  |  /  |          
                  \  \/   | |  | |   /    \    | | | |  |  | /  /          
                 / \  \   | |__| |  /  /\  \   | |_| |  |  |/  /          
                |  |  |   |  __  | /  /__\  \  |    /   |      \           
                |  |  |   | |  | | |   __   |  |    \   |  |\   \          
                \     /   | |  | | |  |  |  |  | |\  \  |  | \   \       
                 \___/    |_|  |_| |__|  |__|  |_| \__\ |__|  \__/        
                                                                              
                      - O R C A' S   B I G   F R I E N D -                    
                                      &                                       
                       - I N T E G R A L  F E E D E R -                       
                                                                              
 v1 FN, 2020, v2 2021                                                         
------------------------------------------------------------------------------


Reading SHARK input file pbeh-3c.SHARKINP.tmp ... ok
----------------------
SHARK INTEGRAL PACKAGE
----------------------

Number of atoms                             ...     16
Number of basis functions                   ...    110
Number of shells                            ...     62
Maximum angular momentum                    ...      2
Integral batch strategy                     ... SHARK/LIBINT Hybrid
RI-J (if used) integral strategy            ... SPLIT-RIJ (Revised 2003 algorithm where possible)
Printlevel                                  ...      1
Contraction scheme used                     ... SEGMENTED contraction
Coulomb Range Separation                    ... NOT USED
Exchange Range Separation                   ... NOT USED
Finite Nucleus Model                        ... NOT USED
Auxiliary Coulomb fitting basis             ... AVAILABLE
   # of basis functions in Aux-J            ...    404
   # of shells in Aux-J                     ...    140
   Maximum angular momentum in Aux-J        ...      4
Auxiliary J/K fitting basis                 ... NOT available
Auxiliary Correlation fitting basis         ... NOT available
Auxiliary 'external' fitting basis          ... NOT available
Integral threshold                          ...     2.500000e-11
Primitive cut-off                           ...     2.500000e-12
Primitive pair pre-selection threshold      ...     2.500000e-12

Calculating pre-screening integrals         ... done (  0.0 sec) Dimension = 62
Organizing shell pair data                  ... done (  0.2 sec)
Shell pair information
Total number of shell pairs                 ...      1953
Shell pairs after pre-screening             ...      1766
Total number of primitive shell pairs       ...      7129
Primitive shell pairs kept                  ...      4685
          la=0 lb=0:    863 shell pairs
          la=1 lb=0:    506 shell pairs
          la=1 lb=1:     77 shell pairs
          la=2 lb=0:    232 shell pairs
          la=2 lb=1:     70 shell pairs
          la=2 lb=2:     18 shell pairs

Calculating one electron integrals          ... done (  0.0 sec)
Calculating RI/J V-Matrix + Cholesky decomp.... done (  0.4 sec)
Calculating Nuclear repulsion               ... done (  0.1 sec) ENN=    211.484786706137 Eh

SHARK setup successfully completed in   2.2 seconds

Maximum memory used throughout the entire GTOINT-calculation: 10.5 MB


           ************************************************************
           *        Program running with 4 parallel MPI-processes     *
           *              working on a common directory               *
           ************************************************************
-------------------------------------------------------------------------------
                                 ORCA SCF
-------------------------------------------------------------------------------

------------
SCF SETTINGS
------------
Hamiltonian:
 Density Functional     Method          .... DFT(GTOs)
 Exchange Functional    Exchange        .... PBE
   PBE kappa parameter   XKappa         ....  1.024500
   PBE mue parameter    XMuePBE         ....  0.123457
 Correlation Functional Correlation     .... PBE
   PBE beta parameter  CBetaPBE         ....  0.030000
 LDA part of GGA corr.  LDAOpt          .... PW91-LDA
 Gradients option       PostSCFGGA      .... off
 Hybrid DFT is turned on
   Fraction HF Exchange ScalHFX         ....  0.420000
   Scaling of DF-GGA-X  ScalDFX         ....  0.580000
   Scaling of DF-GGA-C  ScalDFC         ....  1.000000
   Scaling of DF-LDA-C  ScalLDAC        ....  1.000000
   Perturbative correction              ....  0.000000
   Density functional embedding theory  .... OFF
 RI-approximation to the Coulomb term is turned on
   Number of AuxJ basis functions       .... 404
   RIJ-ON(X) (HFX calculated with O(N)) .... on
   Number of AuxJ basis functions       .... 404
   RIJ-COSX (HFX calculated with COS-X)).... on


General Settings:
 Integral files         IntName         .... pbeh-3c
 Hartree-Fock type      HFTyp           .... RHF
 Total Charge           Charge          ....    0
 Multiplicity           Mult            ....    1
 Number of Electrons    NEL             ....   46
 Basis Dimension        Dim             ....  110
 Nuclear Repulsion      ENuc            ....    211.4847867061 Eh

Convergence Acceleration:
 DIIS                   CNVDIIS         .... on
   Start iteration      DIISMaxIt       ....    12
   Startup error        DIISStart       ....  0.200000
   # of expansion vecs  DIISMaxEq       ....     5
   Bias factor          DIISBfac        ....   1.050
   Max. coefficient     DIISMaxC        ....  10.000
 Trust-Rad. Augm. Hess. CNVTRAH         .... auto
   Auto Start mean grad. ratio tolernc. ....  1.125000
   Auto Start start iteration           ....    20
   Auto Start num. interpolation iter.  ....    10
   Max. Number of Micro iterations      ....    16
   Max. Number of Macro iterations      .... Maxiter - #DIIS iter
   Number of Davidson start vectors     ....     2
   Converg. threshold I  (grad. norm)   ....   1.000e-05
   Converg. threshold II (energy diff.) ....   1.000e-08
   Grad. Scal. Fac. for Micro threshold ....   0.100
   Minimum threshold for Micro iter.    ....   0.010
   NR start threshold (gradient norm)   ....   0.001
   Initial trust radius                 ....   0.400
   Minimum AH scaling param. (alpha)    ....   1.000
   Maximum AH scaling param. (alpha)    .... 1000.000
   Orbital update algorithm             .... Taylor
   White noise on init. David. guess    .... on
   Maximum white noise                  ....   0.010
   Quad. conv. algorithm                .... NR
   COSX micro iterations for RIJONX calc.... off
 SOSCF                  CNVSOSCF        .... on
   Start iteration      SOSCFMaxIt      ....   150
   Startup grad/error   SOSCFStart      ....  0.003300
 Level Shifting         CNVShift        .... on
   Level shift para.    LevelShift      ....    0.2500
   Turn off err/grad.   ShiftErr        ....    0.0010
 Zerner damping         CNVZerner       .... off
 Static damping         CNVDamp         .... on
   Fraction old density DampFac         ....    0.7000
   Max. Damping (<1)    DampMax         ....    0.9800
   Min. Damping (>=0)   DampMin         ....    0.0000
   Turn off err/grad.   DampErr         ....    0.1000
 Fernandez-Rico         CNVRico         .... off

SCF Procedure:
 Maximum # iterations   MaxIter         ....   125
 SCF integral mode      SCFMode         .... Direct
   Integral package                     .... SHARK and LIBINT hybrid scheme
 Reset frequency        DirectResetFreq ....    20
 Integral Threshold     Thresh          ....  2.500e-11 Eh
 Primitive CutOff       TCut            ....  2.500e-12 Eh

Convergence Tolerance:
 Convergence Check Mode ConvCheckMode   .... Total+1el-Energy
 Convergence forced     ConvForced      .... 0
 Energy Change          TolE            ....  1.000e-08 Eh
 1-El. energy change                    ....  1.000e-05 Eh
 Orbital Gradient       TolG            ....  1.000e-05
 Orbital Rotation angle TolX            ....  1.000e-05
 DIIS Error             TolErr          ....  5.000e-07


Diagonalization of the overlap matrix:
Smallest eigenvalue                        ... 3.673e-03
Time for diagonalization                   ...    0.003 sec
Threshold for overlap eigenvalues          ... 1.000e-08
Number of eigenvalues below threshold      ... 0
Time for construction of square roots      ...    0.176 sec
Total time needed                          ...    0.190 sec

--------------------------------
INITIAL GUESS: MINIMAL BASIS EHT
--------------------------------
The minimal basis has 40 functions
EHT matrix was diagonalized
Basis set overlap was calculated now projecting the orbitals
Using GuessMode=FMatrix for the initial guess
C*T matrix was formed
Effective Fockian was calculated
Effective Fockian was diagonalized
Initial density was built
                      ------------------
                      INITIAL GUESS DONE
                      ------------------
-------------------
DFT GRID GENERATION
-------------------

General Integration Accuracy     IntAcc      ... 4.959
Radial Grid Type                 RadialGrid  ... OptM3 with GC (2021)
Angular Grid (max. ang.)         AngularGrid ... 6 (Lebedev-590)
Angular grid pruning method      GridPruning ... 4 (adaptive)
Weight generation scheme         WeightScheme... Becke
Basis function cutoff            BFCut       ... 1.0000e-11
Integration weight cutoff        WCut        ... 1.0000e-14
Angular grids for H and He will be reduced by one unit
Partially contracted basis set               ... off
Rotationally invariant grid construction     ... off

Total number of grid points                  ...   173431
Total number of batches                      ...     2717
Average number of points per batch           ...       63
Average number of grid points per atom       ...    10839
Time for grid setup =    3.333 sec

--------------------
COSX GRID GENERATION
--------------------

GRIDX 1
-------
General Integration Accuracy     IntAcc      ... 4.020
Radial Grid Type                 RadialGrid  ... OptM3 with GC (2021)
Angular Grid (max. ang.)         AngularGrid ... 2 (Lebedev-110)
Angular grid pruning method      GridPruning ... 4 (adaptive)
Weight generation scheme         WeightScheme... Becke
Basis function cutoff            BFCut       ... 1.0000e-11
Integration weight cutoff        WCut        ... 1.0000e-14
Angular grids for H and He will be reduced by one unit
Partially contracted basis set               ... on
Rotationally invariant grid construction     ... off

Total number of grid points                  ...    18509
Total number of batches                      ...      298
Average number of points per batch           ...       62
Average number of grid points per atom       ...     1157
UseSFitting                                  ... on

GRIDX 2
-------
General Integration Accuracy     IntAcc      ... 4.338
Radial Grid Type                 RadialGrid  ... OptM3 with GC (2021)
Angular Grid (max. ang.)         AngularGrid ... 3 (Lebedev-194)
Angular grid pruning method      GridPruning ... 4 (adaptive)
Weight generation scheme         WeightScheme... Becke
Basis function cutoff            BFCut       ... 1.0000e-11
Integration weight cutoff        WCut        ... 1.0000e-14
Angular grids for H and He will be reduced by one unit
Partially contracted basis set               ... on
Rotationally invariant grid construction     ... off

Total number of grid points                  ...    40553
Total number of batches                      ...      638
Average number of points per batch           ...       63
Average number of grid points per atom       ...     2535
UseSFitting                                  ... on

GRIDX 3
-------
General Integration Accuracy     IntAcc      ... 4.871
Radial Grid Type                 RadialGrid  ... OptM3 with GC (2021)
Angular Grid (max. ang.)         AngularGrid ... 4 (Lebedev-302)
Angular grid pruning method      GridPruning ... 4 (adaptive)
Weight generation scheme         WeightScheme... Becke
Basis function cutoff            BFCut       ... 1.0000e-11
Integration weight cutoff        WCut        ... 1.0000e-14
Angular grids for H and He will be reduced by one unit
Partially contracted basis set               ... on
Rotationally invariant grid construction     ... off

Total number of grid points                  ...    80055
Total number of batches                      ...     1259
Average number of points per batch           ...       63
Average number of grid points per atom       ...     5003
UseSFitting                                  ... on

Time for X-Grid setup             =    4.034 sec

--------------
SCF ITERATIONS
--------------
ITER       Energy         Delta-E        Max-DP      RMS-DP      [F,P]     Damp
               ***  Starting incremental Fock matrix formation  ***
  0   -233.5602952729   0.000000000000 0.07465595  0.00288311  0.4009861 0.7000
  1   -233.7145485559  -0.154253282999 0.05363188  0.00216697  0.2811177 0.7000
                               ***Turning on DIIS***
  2   -233.8252555435  -0.110706987614 0.03732004  0.00161500  0.1962006 0.7000
  3   -233.9043083125  -0.079052768940 0.02684583  0.00128269  0.1381412 0.7000
  4   -233.9606492323  -0.056340919860 0.06996889  0.00323541  0.0966765 0.0000
  5   -234.0961107246  -0.135461492275 0.00484929  0.00016984  0.0041821 0.0000
                      *** Initiating the SOSCF procedure ***
                           *** Shutting down DIIS ***
                      *** Re-Reading the Fockian *** 
                      *** Removing any level shift *** 
ITER      Energy       Delta-E        Grad      Rot      Max-DP    RMS-DP
  6   -234.09620480  -0.0000940779  0.000742  0.000742  0.001623  0.000073
               *** Restarting incremental Fock matrix formation ***
  7   -234.09622641  -0.0000216035  0.000390  0.001139  0.001418  0.000053
  8   -234.09622801  -0.0000016018  0.000416  0.000593  0.000619  0.000024
  9   -234.09623003  -0.0000020229  0.000041  0.000082  0.000120  0.000006
 10   -234.09623006  -0.0000000273  0.000012  0.000010  0.000025  0.000001
 11   -234.09623006  -0.0000000053  0.000005  0.000005  0.000012  0.000001
                 **** Energy Check signals convergence ****
              ***Rediagonalizing the Fockian in SOSCF/NRSCF***

               *****************************************************
               *                     SUCCESS                       *
               *           SCF CONVERGED AFTER  12 CYCLES          *
               *****************************************************

Old exchange energy                            =    -14.515639759 Eh
New exchange energy                            =    -14.515634224 Eh
Exchange energy change after final integration =      0.000005535 Eh
Total energy after final integration           =   -234.096224530 Eh
Final COS-X integration done in                =     3.016 sec

----------------
TOTAL SCF ENERGY
----------------

Total Energy       :         -234.09622453 Eh           -6370.08212 eV

Components:
Nuclear Repulsion  :          211.48478671 Eh            5754.79361 eV
Electronic Energy  :         -445.58101124 Eh          -12124.87573 eV
One Electron Energy:         -732.42327880 Eh          -19930.25065 eV
Two Electron Energy:          286.84226757 Eh            7805.37492 eV
Max COSX asymmetry :            0.00000068 Eh               0.00002 eV

Virial components:
Potential Energy   :         -466.09856010 Eh          -12683.18662 eV
Kinetic Energy     :          232.00233558 Eh            6313.10450 eV
Virial Ratio       :            2.00902529


DFT components:
N(Alpha)           :       23.000001099384 electrons
N(Beta)            :       23.000001099384 electrons
N(Total)           :       46.000002198768 electrons
E(X)               :      -19.244277741421 Eh       
E(C)               :       -1.937639588214 Eh       
E(XC)              :      -21.181917329634 Eh       
DFET-embed. en.    :        0.000000000000 Eh       

---------------
SCF CONVERGENCE
---------------

  Last Energy change         ...   -9.4062e-10  Tolerance :   1.0000e-08
  Last MAX-Density change    ...    8.8948e-16  Tolerance :   1.0000e-07
  Last RMS-Density change    ...    3.7311e-17  Tolerance :   5.0000e-09
  Last Orbital Gradient      ...    5.0070e-07  Tolerance :   1.0000e-05
  Last Orbital Rotation      ...    1.1244e-06  Tolerance :   1.0000e-05

             **** THE GBW FILE WAS UPDATED (pbeh-3c.gbw) ****
             **** DENSITY pbeh-3c.scfp WAS UPDATED ****
             **** ENERGY FILE WAS UPDATED (pbeh-3c.en.tmp) ****
             **** THE GBW FILE WAS UPDATED (pbeh-3c.gbw) ****
             **** DENSITY pbeh-3c.scfp WAS UPDATED ****
----------------
ORBITAL ENERGIES
----------------

  NO   OCC          E(Eh)            E(eV) 
   0   2.0000     -10.448045      -284.3058 
   1   2.0000     -10.447999      -284.3045 
   2   2.0000     -10.443594      -284.1847 
   3   2.0000     -10.443405      -284.1795 
   4   2.0000     -10.434542      -283.9383 
   5   2.0000     -10.434536      -283.9382 
   6   2.0000      -0.905603       -24.6427 
   7   2.0000      -0.863060       -23.4851 
   8   2.0000      -0.798357       -21.7244 
   9   2.0000      -0.711077       -19.3494 
  10   2.0000      -0.627614       -17.0782 
  11   2.0000      -0.619065       -16.8456 
  12   2.0000      -0.539828       -14.6895 
  13   2.0000      -0.523038       -14.2326 
  14   2.0000      -0.502854       -13.6834 
  15   2.0000      -0.460877       -12.5411 
  16   2.0000      -0.460030       -12.5181 
  17   2.0000      -0.437244       -11.8980 
  18   2.0000      -0.404819       -11.0157 
  19   2.0000      -0.390095       -10.6150 
  20   2.0000      -0.382132       -10.3983 
  21   2.0000      -0.308301        -8.3893 
  22   2.0000      -0.294295        -8.0082 
  23   0.0000       0.041103         1.1185 
  24   0.0000       0.048445         1.3182 
  25   0.0000       0.152507         4.1499 
  26   0.0000       0.168393         4.5822 
  27   0.0000       0.170768         4.6468 
  28   0.0000       0.190753         5.1906 
  29   0.0000       0.202110         5.4997 
  30   0.0000       0.208284         5.6677 
  31   0.0000       0.227210         6.1827 
  32   0.0000       0.233212         6.3460 
  33   0.0000       0.236168         6.4264 
  34   0.0000       0.249330         6.7846 
  35   0.0000       0.259752         7.0682 
  36   0.0000       0.332111         9.0372 
  37   0.0000       0.343236         9.3399 
  38   0.0000       0.363591         9.8938 
  39   0.0000       0.378789        10.3074 
  40   0.0000       0.479794        13.0558 
  41   0.0000       0.503006        13.6875 
  42   0.0000       0.525361        14.2958 
  43   0.0000       0.527162        14.3448 
  44   0.0000       0.552591        15.0368 
  45   0.0000       0.583132        15.8678 
  46   0.0000       0.599759        16.3203 
  47   0.0000       0.607823        16.5397 
  48   0.0000       0.653666        17.7872 
  49   0.0000       0.664546        18.0832 
  50   0.0000       0.686883        18.6910 
  51   0.0000       0.716425        19.4949 
  52   0.0000       0.719400        19.5759 
  53   0.0000       0.732125        19.9221 
  54   0.0000       0.764048        20.7908 
  55   0.0000       0.786350        21.3977 
  56   0.0000       0.902899        24.5691 
  57   0.0000       0.928743        25.2724 
  58   0.0000       0.971552        26.4373 
  59   0.0000       0.975033        26.5320 
  60   0.0000       1.014279        27.5999 
  61   0.0000       1.014393        27.6030 
  62   0.0000       1.025163        27.8961 
  63   0.0000       1.036477        28.2040 
  64   0.0000       1.036707        28.2102 
  65   0.0000       1.074953        29.2510 
  66   0.0000       1.085961        29.5505 
  67   0.0000       1.141269        31.0555 
  68   0.0000       1.162771        31.6406 
  69   0.0000       1.164140        31.6779 
  70   0.0000       1.224485        33.3199 
  71   0.0000       1.259081        34.2613 
  72   0.0000       1.319604        35.9083 
  73   0.0000       1.409441        38.3528 
  74   0.0000       1.488422        40.5020 
  75   0.0000       1.540572        41.9211 
  76   0.0000       1.614690        43.9380 
  77   0.0000       1.650331        44.9078 
  78   0.0000       1.717105        46.7248 
  79   0.0000       1.754225        47.7349 
  80   0.0000       1.801324        49.0165 
  81   0.0000       1.907136        51.8958 
  82   0.0000       1.947823        53.0030 
  83   0.0000       1.959642        53.3246 
  84   0.0000       1.981488        53.9190 
  85   0.0000       2.039906        55.5087 
  86   0.0000       2.046692        55.6933 
  87   0.0000       2.062154        56.1141 
  88   0.0000       2.136146        58.1275 
  89   0.0000       2.193138        59.6783 
  90   0.0000       2.256349        61.3984 
  91   0.0000       2.298660        62.5497 
  92   0.0000       2.322090        63.1873 
  93   0.0000       2.413518        65.6752 
  94   0.0000       2.414392        65.6990 
  95   0.0000       2.478913        67.4547 
  96   0.0000       2.528951        68.8162 
  97   0.0000       2.553758        69.4913 
  98   0.0000       2.661796        72.4311 
  99   0.0000       2.672543        72.7236 
 100   0.0000       2.820241        76.7427 
 101   0.0000       2.830311        77.0167 
 102   0.0000       2.919031        79.4309 
 103   0.0000       2.981747        81.1375 
 104   0.0000      13.365052       363.6815 
 105   0.0000      13.471548       366.5794 
 106   0.0000      13.773941       374.8080 
 107   0.0000      14.016314       381.4033 
 108   0.0000      14.143338       384.8598 
 109   0.0000      14.150401       385.0520 

                    ********************************
                    * MULLIKEN POPULATION ANALYSIS *
                    ********************************

-----------------------
MULLIKEN ATOMIC CHARGES
-----------------------
   0 C :   -0.471841
   1 C :   -0.471905
   2 C :   -0.124703
   3 C :   -0.487622
   4 C :   -0.124647
   5 C :   -0.487659
   6 H :    0.232399
   7 H :    0.216453
   8 H :    0.216442
   9 H :    0.232386
  10 H :    0.211874
  11 H :    0.208554
  12 H :    0.214933
  13 H :    0.211854
  14 H :    0.214929
  15 H :    0.208554
Sum of atomic charges:    0.0000000

--------------------------------
MULLIKEN REDUCED ORBITAL CHARGES
--------------------------------
  0 C s       :     3.350831  s :     3.350831
      pz      :     0.928690  p :     3.077731
      px      :     1.090786
      py      :     1.058256
      dz2     :     0.010929  d :     0.043279
      dxz     :     0.006581
      dyz     :     0.009265
      dx2y2   :     0.013432
      dxy     :     0.003073
  1 C s       :     3.350837  s :     3.350837
      pz      :     0.928830  p :     3.077790
      px      :     1.090619
      py      :     1.058341
      dz2     :     0.010920  d :     0.043279
      dxz     :     0.006589
      dyz     :     0.009265
      dx2y2   :     0.013439
      dxy     :     0.003066
  2 C s       :     3.216619  s :     3.216619
      pz      :     0.898393  p :     2.867933
      px      :     1.017675
      py      :     0.951866
      dz2     :     0.012677  d :     0.040151
      dxz     :     0.009498
      dyz     :     0.007525
      dx2y2   :     0.008365
      dxy     :     0.002086
  3 C s       :     3.325125  s :     3.325125
      pz      :     1.028550  p :     3.129929
      px      :     1.072873
      py      :     1.028506
      dz2     :     0.010002  d :     0.032568
      dxz     :     0.009201
      dyz     :     0.004523
      dx2y2   :     0.006937
      dxy     :     0.001905
  4 C s       :     3.216606  s :     3.216606
      pz      :     0.898312  p :     2.867890
      px      :     1.017698
      py      :     0.951881
      dz2     :     0.012680  d :     0.040151
      dxz     :     0.009498
      dyz     :     0.007530
      dx2y2   :     0.008362
      dxy     :     0.002080
  5 C s       :     3.325136  s :     3.325136
      pz      :     1.028570  p :     3.129954
      px      :     1.072782
      py      :     1.028602
      dz2     :     0.010009  d :     0.032568
      dxz     :     0.009197
      dyz     :     0.004526
      dx2y2   :     0.006937
      dxy     :     0.001898
  6 H s       :     0.767601  s :     0.767601
  7 H s       :     0.783547  s :     0.783547
  8 H s       :     0.783558  s :     0.783558
  9 H s       :     0.767614  s :     0.767614
 10 H s       :     0.788126  s :     0.788126
 11 H s       :     0.791446  s :     0.791446
 12 H s       :     0.785067  s :     0.785067
 13 H s       :     0.788146  s :     0.788146
 14 H s       :     0.785071  s :     0.785071
 15 H s       :     0.791446  s :     0.791446


                     *******************************
                     * LOEWDIN POPULATION ANALYSIS *
                     *******************************

----------------------
LOEWDIN ATOMIC CHARGES
----------------------
   0 C :   -0.234862
   1 C :   -0.234879
   2 C :   -0.139454
   3 C :   -0.275661
   4 C :   -0.139458
   5 C :   -0.275665
   6 H :    0.135338
   7 H :    0.127295
   8 H :    0.127292
   9 H :    0.135321
  10 H :    0.127913
  11 H :    0.127573
  12 H :    0.131883
  13 H :    0.127908
  14 H :    0.131882
  15 H :    0.127573

-------------------------------
LOEWDIN REDUCED ORBITAL CHARGES
-------------------------------
  0 C s       :     2.913702  s :     2.913702
      pz      :     1.039425  p :     3.233521
      px      :     1.103682
      py      :     1.090414
      dz2     :     0.022617  d :     0.087639
      dxz     :     0.014873
      dyz     :     0.020403
      dx2y2   :     0.024254
      dxy     :     0.005491
  1 C s       :     2.913697  s :     2.913697
      pz      :     1.039466  p :     3.233544
      px      :     1.103649
      py      :     1.090429
      dz2     :     0.022599  d :     0.087637
      dxz     :     0.014890
      dyz     :     0.020401
      dx2y2   :     0.024268
      dxy     :     0.005479
  2 C s       :     2.916847  s :     2.916847
      pz      :     1.078376  p :     3.134004
      px      :     1.092518
      py      :     0.963110
      dz2     :     0.029923  d :     0.088604
      dxz     :     0.024576
      dyz     :     0.015608
      dx2y2   :     0.014218
      dxy     :     0.004278
  3 C s       :     2.966722  s :     2.966722
      pz      :     1.103860  p :     3.242606
      px      :     1.103589
      py      :     1.035157
      dz2     :     0.022111  d :     0.066333
      dxz     :     0.020878
      dyz     :     0.008296
      dx2y2   :     0.011295
      dxy     :     0.003754
  4 C s       :     2.916849  s :     2.916849
      pz      :     1.078433  p :     3.134005
      px      :     1.092593
      py      :     0.962979
      dz2     :     0.029936  d :     0.088603
      dxz     :     0.024585
      dyz     :     0.015607
      dx2y2   :     0.014215
      dxy     :     0.004260
  5 C s       :     2.966717  s :     2.966717
      pz      :     1.103890  p :     3.242614
      px      :     1.103624
      py      :     1.035100
      dz2     :     0.022128  d :     0.066333
      dxz     :     0.020882
      dyz     :     0.008290
      dx2y2   :     0.011300
      dxy     :     0.003734
  6 H s       :     0.864662  s :     0.864662
  7 H s       :     0.872705  s :     0.872705
  8 H s       :     0.872708  s :     0.872708
  9 H s       :     0.864679  s :     0.864679
 10 H s       :     0.872087  s :     0.872087
 11 H s       :     0.872427  s :     0.872427
 12 H s       :     0.868117  s :     0.868117
 13 H s       :     0.872092  s :     0.872092
 14 H s       :     0.868118  s :     0.868118
 15 H s       :     0.872427  s :     0.872427


                      *****************************
                      * MAYER POPULATION ANALYSIS *
                      *****************************

  NA   - Mulliken gross atomic population
  ZA   - Total nuclear charge
  QA   - Mulliken gross atomic charge
  VA   - Mayer's total valence
  BVA  - Mayer's bonded valence
  FA   - Mayer's free valence

  ATOM       NA         ZA         QA         VA         BVA        FA
  0 C      6.4718     6.0000    -0.4718     3.7290     3.7290     0.0000
  1 C      6.4719     6.0000    -0.4719     3.7291     3.7291     0.0000
  2 C      6.1247     6.0000    -0.1247     3.7789     3.7789     0.0000
  3 C      6.4876     6.0000    -0.4876     3.8181     3.8181     0.0000
  4 C      6.1246     6.0000    -0.1246     3.7788     3.7788    -0.0000
  5 C      6.4877     6.0000    -0.4877     3.8181     3.8181    -0.0000
  6 H      0.7676     1.0000     0.2324     0.8992     0.8992    -0.0000
  7 H      0.7835     1.0000     0.2165     0.9118     0.9118    -0.0000
  8 H      0.7836     1.0000     0.2164     0.9118     0.9118     0.0000
  9 H      0.7676     1.0000     0.2324     0.8992     0.8992     0.0000
 10 H      0.7881     1.0000     0.2119     0.9140     0.9140    -0.0000
 11 H      0.7914     1.0000     0.2086     0.9250     0.9250     0.0000
 12 H      0.7851     1.0000     0.2149     0.9238     0.9238    -0.0000
 13 H      0.7881     1.0000     0.2119     0.9140     0.9140    -0.0000
 14 H      0.7851     1.0000     0.2149     0.9238     0.9238    -0.0000
 15 H      0.7914     1.0000     0.2086     0.9250     0.9250    -0.0000

  Mayer bond orders larger than 0.100000
B(  0-C ,  1-C ) :   0.9434 B(  0-C ,  4-C ) :   0.9992 B(  0-C ,  6-H ) :   0.9073 
B(  0-C ,  7-H ) :   0.9223 B(  1-C ,  2-C ) :   0.9993 B(  1-C ,  8-H ) :   0.9223 
B(  1-C ,  9-H ) :   0.9073 B(  2-C ,  3-C ) :   1.9364 B(  2-C , 10-H ) :   0.9171 
B(  3-C , 11-H ) :   0.9303 B(  3-C , 12-H ) :   0.9292 B(  4-C ,  5-C ) :   1.9364 
B(  4-C , 13-H ) :   0.9171 B(  5-C , 14-H ) :   0.9292 B(  5-C , 15-H ) :   0.9303 


-------
TIMINGS
-------

Total SCF time: 0 days 0 hours 1 min 32 sec 

Total time                  ....      92.160 sec
Sum of individual times     ....      84.777 sec  ( 92.0%)

Fock matrix formation       ....      70.696 sec  ( 76.7%)
  Split-RI-J                ....       7.253 sec  ( 10.3% of F)
  Chain of spheres X        ....      23.437 sec  ( 33.2% of F)
  XC integration            ....      21.970 sec  ( 31.1% of F)
    Basis function eval.    ....       2.583 sec  ( 11.8% of XC)
    Density eval.           ....       1.891 sec  (  8.6% of XC)
    XC-Functional eval.     ....       1.410 sec  (  6.4% of XC)
    XC-Potential eval.      ....       0.932 sec  (  4.2% of XC)
Diagonalization             ....       1.214 sec  (  1.3%)
Density matrix formation    ....       0.133 sec  (  0.1%)
Population analysis         ....       0.458 sec  (  0.5%)
Initial guess               ....       0.020 sec  (  0.0%)
Orbital Transformation      ....       0.000 sec  (  0.0%)
Orbital Orthonormalization  ....       0.000 sec  (  0.0%)
DIIS solution               ....       3.529 sec  (  3.8%)
SOSCF solution              ....       1.361 sec  (  1.5%)
Grid generation             ....       7.366 sec  (  8.0%)

Maximum memory used throughout the entire SCF-calculation: 52.7 MB


-------------------------------------------------------------------------------
                          DFT DISPERSION CORRECTION                            
                                                                               
                              DFTD3 V3.1  Rev 1                                
                          USING Becke-Johnson damping                          
-------------------------------------------------------------------------------
The PBEh-3c composite method is recognized
Using three-body term ABC
Active option DFTDOPT                   ...         4   

molecular C6(AA) [au] = 2144.982477 


            DFT-D V3
 parameters
 s6 scaling factor         :     1.0000 
 a1 scaling factor         :     0.4860 
 s8 scaling factor         :     0.0000 
 a2 scaling factor         :     4.5000 
 Damping factor alpha9(ATM):    16.0000 
 ad hoc parameters k1-k3   :    16.0000     1.3333    -4.0000 

 Edisp/kcal,au: -4.316949033864  -0.006879495453 
 E6   /kcal   :  -4.320479811 
 E8   /kcal   :  -0.000000000 
 E6(ABC)      :   0.003530777 
 % E8         :   0.000000000 
 % E6(ABC)    :  -0.081788707 

-------------------------   ----------------
Dispersion correction           -0.006879495
-------------------------   ----------------

------------------   -----------------
gCP correction             0.020491359
------------------   -----------------

-------------------------   --------------------
FINAL SINGLE POINT ENERGY      -234.082612666072
-------------------------   --------------------


                            ***************************************
                            *     ORCA property calculations      *
                            ***************************************

                                    ---------------------
                                    Active property flags
                                    ---------------------
   (+) Dipole Moment


------------------------------------------------------------------------------
                       ORCA ELECTRIC PROPERTIES CALCULATION
------------------------------------------------------------------------------

Dipole Moment Calculation                       ... on
Quadrupole Moment Calculation                   ... off
Polarizability Calculation                      ... off
GBWName                                         ... pbeh-3c.gbw
Electron density                                ... pbeh-3c.scfp
The origin for moment calculation is the CENTER OF MASS  = ( 0.000005,  0.000128  0.000002)

-------------
DIPOLE MOMENT
-------------
                                X             Y             Z
Electronic contribution:      0.00001       0.00112      -0.00002
Nuclear contribution   :     -0.00005      -0.00111      -0.00002
                        -----------------------------------------
Total Dipole Moment    :     -0.00004       0.00000      -0.00004
                        -----------------------------------------
Magnitude (a.u.)       :      0.00006
Magnitude (Debye)      :      0.00015



--------------------
Rotational spectrum 
--------------------
 
Rotational constants in cm-1:     0.542768     0.044486     0.043805 
Rotational constants in MHz : 16271.780598  1333.665121  1313.249508 

 Dipole components along the rotational axes: 
x,y,z [a.u.] :    -0.000043     0.000038    -0.000004 
x,y,z [Debye]:    -0.000110     0.000097    -0.000010 

 

Timings for individual modules:

Sum of individual times         ...       96.137 sec (=   1.602 min)
GTO integral calculation        ...        2.984 sec (=   0.050 min)   3.1 %
SCF iterations                  ...       93.153 sec (=   1.553 min)  96.9 %
                             ****ORCA TERMINATED NORMALLY****
TOTAL RUN TIME: 0 days 0 hours 1 minutes 39 seconds 53 msec
