
                                 *****************
                                 * O   R   C   A *
                                 *****************

                                            #,                                       
                                            ###                                      
                                            ####                                     
                                            #####                                    
                                            ######                                   
                                           ########,                                 
                                     ,,################,,,,,                         
                               ,,#################################,,                 
                          ,,##########################################,,             
                       ,#########################################, ''#####,          
                    ,#############################################,,   '####,        
                  ,##################################################,,,,####,       
                ,###########''''           ''''###############################       
              ,#####''   ,,,,##########,,,,          '''####'''          '####       
            ,##' ,,,,###########################,,,                        '##       
           ' ,,###''''                  '''############,,,                           
         ,,##''                                '''############,,,,        ,,,,,,###''
      ,#''                                            '''#######################'''  
     '                                                          ''''####''''         
             ,#######,   #######,   ,#######,      ##                                
            ,#'     '#,  ##    ##  ,#'     '#,    #''#        ######   ,####,        
            ##       ##  ##   ,#'  ##            #'  '#       #        #'  '#        
            ##       ##  #######   ##           ,######,      #####,   #    #        
            '#,     ,#'  ##    ##  '#,     ,#' ,#      #,         ##   #,  ,#        
             '#######'   ##     ##  '#######'  #'      '#     #####' # '####'        



                  #######################################################
                  #                        -***-                        #
                  #          Department of theory and spectroscopy      #
                  #    Directorship and core code : Frank Neese         #
                  #        Max Planck Institute fuer Kohlenforschung    #
                  #                Kaiser Wilhelm Platz 1               #
                  #                 D-45470 Muelheim/Ruhr               #
                  #                      Germany                        #
                  #                                                     #
                  #                  All rights reserved                #
                  #                        -***-                        #
                  #######################################################


                         Program Version 5.0.3 -  RELEASE  -


 With contributions from (in alphabetic order):
   Daniel Aravena         : Magnetic Suceptibility
   Michael Atanasov       : Ab Initio Ligand Field Theory (pilot matlab implementation)
   Alexander A. Auer      : GIAO ZORA, VPT2 properties, NMR spectrum
   Ute Becker             : Parallelization
   Giovanni Bistoni       : ED, misc. LED, open-shell LED, HFLD
   Martin Brehm           : Molecular dynamics
   Dmytro Bykov           : SCF Hessian
   Vijay G. Chilkuri      : MRCI spin determinant printing, contributions to CSF-ICE
   Dipayan Datta          : RHF DLPNO-CCSD density
   Achintya Kumar Dutta   : EOM-CC, STEOM-CC
   Dmitry Ganyushin       : Spin-Orbit,Spin-Spin,Magnetic field MRCI
   Miquel Garcia          : C-PCM and meta-GGA Hessian, CC/C-PCM, Gaussian charge scheme
   Yang Guo               : DLPNO-NEVPT2, F12-NEVPT2, CIM, IAO-localization
   Andreas Hansen         : Spin unrestricted coupled pair/coupled cluster methods
   Benjamin Helmich-Paris : MC-RPA, TRAH-SCF, COSX integrals
   Lee Huntington         : MR-EOM, pCC
   Robert Izsak           : Overlap fitted RIJCOSX, COSX-SCS-MP3, EOM
   Marcus Kettner         : VPT2
   Christian Kollmar      : KDIIS, OOCD, Brueckner-CCSD(T), CCSD density, CASPT2, CASPT2-K
   Simone Kossmann        : Meta GGA functionals, TD-DFT gradient, OOMP2, MP2 Hessian
   Martin Krupicka        : Initial AUTO-CI
   Lucas Lang             : DCDCAS
   Marvin Lechner         : AUTO-CI (C++ implementation), FIC-MRCC
   Dagmar Lenk            : GEPOL surface, SMD
   Dimitrios Liakos       : Extrapolation schemes; Compound Job, initial MDCI parallelization
   Dimitrios Manganas     : Further ROCIS development; embedding schemes
   Dimitrios Pantazis     : SARC Basis sets
   Anastasios Papadopoulos: AUTO-CI, single reference methods and gradients
   Taras Petrenko         : DFT Hessian,TD-DFT gradient, ASA, ECA, R-Raman, ABS, FL, XAS/XES, NRVS
   Peter Pinski           : DLPNO-MP2, DLPNO-MP2 Gradient
   Christoph Reimann      : Effective Core Potentials
   Marius Retegan         : Local ZFS, SOC
   Christoph Riplinger    : Optimizer, TS searches, QM/MM, DLPNO-CCSD(T), (RO)-DLPNO pert. Triples
   Tobias Risthaus        : Range-separated hybrids, TD-DFT gradient, RPA, STAB
   Michael Roemelt        : Original ROCIS implementation
   Masaaki Saitow         : Open-shell DLPNO-CCSD energy and density
   Barbara Sandhoefer     : DKH picture change effects
   Avijit Sen             : IP-ROCIS
   Kantharuban Sivalingam : CASSCF convergence, NEVPT2, FIC-MRCI
   Bernardo de Souza      : ESD, SOC TD-DFT
   Georgi Stoychev        : AutoAux, RI-MP2 NMR, DLPNO-MP2 response
   Willem Van den Heuvel  : Paramagnetic NMR
   Boris Wezisla          : Elementary symmetry handling
   Frank Wennmohs         : Technical directorship


 We gratefully acknowledge several colleagues who have allowed us to
 interface, adapt or use parts of their codes:
   Stefan Grimme, W. Hujo, H. Kruse, P. Pracht,  : VdW corrections, initial TS optimization,
                  C. Bannwarth, S. Ehlert          DFT functionals, gCP, sTDA/sTD-DF
   Ed Valeev, F. Pavosevic, A. Kumar             : LibInt (2-el integral package), F12 methods
   Garnet Chan, S. Sharma, J. Yang, R. Olivares  : DMRG
   Ulf Ekstrom                                   : XCFun DFT Library
   Mihaly Kallay                                 : mrcc  (arbitrary order and MRCC methods)
   Jiri Pittner, Ondrej Demel                    : Mk-CCSD
   Frank Weinhold                                : gennbo (NPA and NBO analysis)
   Christopher J. Cramer and Donald G. Truhlar   : smd solvation model
   Lars Goerigk                                  : TD-DFT with DH, B97 family of functionals
   V. Asgeirsson, H. Jonsson                     : NEB implementation
   FAccTs GmbH                                   : IRC, NEB, NEB-TS, DLPNO-Multilevel, CI-OPT
                                                   MM, QMMM, 2- and 3-layer-ONIOM, Crystal-QMMM,
                                                   LR-CPCM, SF, NACMEs, symmetry and pop. for TD-DFT,
                                                   nearIR, NL-DFT gradient (VV10), updates on ESD,
                                                   ML-optimized integration grids
   S Lehtola, MJT Oliveira, MAL Marques          : LibXC Library
   Liviu Ungur et al                             : ANISO software


 Your calculation uses the libint2 library for the computation of 2-el integrals
 For citations please refer to: http://libint.valeyev.net

 Your ORCA version has been built with support for libXC version: 5.1.0
 For citations please refer to: https://tddft.org/programs/libxc/

 This ORCA versions uses:
   CBLAS   interface :  Fast vector & matrix operations
   LAPACKE interface :  Fast linear algebra routines
   SCALAPACK package :  Parallel linear algebra routines
   Shared memory     :  Shared parallel matrices
   BLAS/LAPACK       :  OpenBLAS 0.3.15  USE64BITINT DYNAMIC_ARCH NO_AFFINITY Haswell SINGLE_THREADED
        Core in use  :  Haswell
   Copyright (c) 2011-2014, The OpenBLAS Project




***************************************
The coordinates will be read from file: P3.xyz
***************************************


Your calculation utilizes the geometrical counterpoise correction gCP
Please cite in your paper:
H.Kruse, S. Grimme J.Chem.Phys., 136, (2012), 154101 
   

Your calculation utilizes the atom-pairwise dispersion correction
with the Becke-Johnson damping scheme (D3BJ)
Cite in your paper:
S.Grimme, S.Ehrlich, L.Goerigk, J Comput Chem, (2011), 32, 1456–1465 
S.Grimme, J.Antony, S.Ehrlich and H.Krieg, J.Chem.Phys., 132, (2010), 154104 
   

Your calculation employs the composite approach PBEh-3c.
Please cite in your paper:
S. Grimme, J. G. Brandenburg, C. Bannwarth, A. Hansen J.Chem.Phys., 143, (2015), 054107 
   

================================================================================

----- Orbital basis set information -----
Your calculation utilizes the basis: def2-mSVP

----- AuxJ basis set information -----
Your calculation utilizes the auxiliary basis: def2/J
   F. Weigend, Phys. Chem. Chem. Phys. 8, 1057 (2006).

================================================================================
                                        WARNINGS
                       Please study these warnings very carefully!
================================================================================


INFO   : the flag for use of the SHARK integral package has been found!

================================================================================
                                       INPUT FILE
================================================================================
NAME = pbeh-3c.inp
|  1> ! PBEh-3c def2/J TightSCF DefGrid3
|  2> 
|  3> %maxcore 60000
|  4> 
|  5> %pal
|  6> nprocs 4
|  7> end
|  8> 
|  9> *xyzfile 0 1 P3.xyz
| 10> 
| 11>                          ****END OF INPUT****
================================================================================

                       ****************************
                       * Single Point Calculation *
                       ****************************

---------------------------------
CARTESIAN COORDINATES (ANGSTROEM)
---------------------------------
  C     -0.317604    0.202408   -1.119905
  C      0.515876    1.377830   -0.666386
  C      0.515876    1.377830    0.666386
  C     -0.317604    0.202408    1.119905
  C     -1.365047    0.159947    0.000000
  C      0.513552   -1.064937   -0.773729
  C      0.513552   -1.064937    0.773729
  H     -0.683176    0.235623   -2.145679
  H      1.102408    2.011282   -1.320318
  H      1.102408    2.011282    1.320318
  H     -0.683176    0.235623    2.145679
  H     -2.020628    1.032459    0.000000
  H     -1.960797   -0.757576    0.000000
  H      0.025240   -1.959152   -1.169049
  H      1.516940   -1.020469   -1.199429
  H      0.025240   -1.959152    1.169049
  H      1.516940   -1.020469    1.199429

----------------------------
CARTESIAN COORDINATES (A.U.)
----------------------------
  NO LB      ZA    FRAG     MASS         X           Y           Z
   0 C     6.0000    0    12.011   -0.600185    0.382496   -2.116313
   1 C     6.0000    0    12.011    0.974865    2.603722   -1.259287
   2 C     6.0000    0    12.011    0.974865    2.603722    1.259287
   3 C     6.0000    0    12.011   -0.600185    0.382496    2.116313
   4 C     6.0000    0    12.011   -2.579565    0.302256    0.000000
   5 C     6.0000    0    12.011    0.970472   -2.012439   -1.462136
   6 C     6.0000    0    12.011    0.970472   -2.012439    1.462136
   7 H     1.0000    0     1.008   -1.291015    0.445264   -4.054745
   8 H     1.0000    0     1.008    2.083250    3.800772   -2.495039
   9 H     1.0000    0     1.008    2.083250    3.800772    2.495039
  10 H     1.0000    0     1.008   -1.291015    0.445264    4.054745
  11 H     1.0000    0     1.008   -3.818434    1.951064    0.000000
  12 H     1.0000    0     1.008   -3.705369   -1.431612    0.000000
  13 H     1.0000    0     1.008    0.047696   -3.702261   -2.209183
  14 H     1.0000    0     1.008    2.866601   -1.928407   -2.266593
  15 H     1.0000    0     1.008    0.047696   -3.702261    2.209183
  16 H     1.0000    0     1.008    2.866601   -1.928407    2.266593

--------------------------------
INTERNAL COORDINATES (ANGSTROEM)
--------------------------------
 C      0   0   0     0.000000000000     0.00000000     0.00000000
 C      1   0   0     1.510624291350     0.00000000     0.00000000
 C      2   1   0     1.332771800000   107.47078849     0.00000000
 C      3   2   1     1.510624291350   107.47078849     0.00000000
 C      1   2   3     1.533990472851   100.31758322    33.35887501
 C      1   2   3     1.554612812698   105.81225843   289.37570223
 C      6   1   2     1.547458000000   102.86628779    67.37181591
 H      1   2   3     1.089475934916   116.36451909   161.02381932
 H      2   1   3     1.083008825278   124.93518926   172.74988910
 H      3   2   1     1.083008825278   127.14328156   172.54252212
 H      4   3   2     1.089475934916   116.36451909   198.97618068
 H      5   1   2     1.091358800328   112.83278884    66.59799397
 H      5   1   2     1.093967916865   113.27002339   192.51786315
 H      6   1   2     1.092861938800   110.34062702   186.08319042
 H      6   1   2     1.090864965347   111.81660540   305.86447134
 H      7   6   1     1.092861938800   111.20643719   118.10414135
 H      7   6   1     1.090864965347   112.96951107   239.27970664

---------------------------
INTERNAL COORDINATES (A.U.)
---------------------------
 C      0   0   0     0.000000000000     0.00000000     0.00000000
 C      1   0   0     2.854666201901     0.00000000     0.00000000
 C      2   1   0     2.518573701013   107.47078849     0.00000000
 C      3   2   1     2.854666201901   107.47078849     0.00000000
 C      1   2   3     2.898821885733   100.31758322    33.35887501
 C      1   2   3     2.937792460284   105.81225843   289.37570223
 C      6   1   2     2.924271823746   102.86628779    67.37181591
 H      1   2   3     2.058811146489   116.36451909   161.02381932
 H      2   1   3     2.046590080395   124.93518926   172.74988910
 H      3   2   1     2.046590080395   127.14328156   172.54252212
 H      4   3   2     2.058811146489   116.36451909   198.97618068
 H      5   1   2     2.062369246465   112.83278884    66.59799397
 H      5   1   2     2.067299762171   113.27002339   192.51786315
 H      6   1   2     2.065209766518   110.34062702   186.08319042
 H      6   1   2     2.061436033594   111.81660540   305.86447134
 H      7   6   1     2.065209766518   111.20643719   118.10414135
 H      7   6   1     2.061436033594   112.96951107   239.27970664

---------------------
BASIS SET INFORMATION
---------------------
There are 2 groups of distinct atoms

 Group   1 Type C   : 8s4p1d contracted to 4s2p1d pattern {5111/31/1}
 Group   2 Type H   : 4s contracted to 2s pattern {31}

Atom   0C    basis set group =>   1
Atom   1C    basis set group =>   1
Atom   2C    basis set group =>   1
Atom   3C    basis set group =>   1
Atom   4C    basis set group =>   1
Atom   5C    basis set group =>   1
Atom   6C    basis set group =>   1
Atom   7H    basis set group =>   2
Atom   8H    basis set group =>   2
Atom   9H    basis set group =>   2
Atom  10H    basis set group =>   2
Atom  11H    basis set group =>   2
Atom  12H    basis set group =>   2
Atom  13H    basis set group =>   2
Atom  14H    basis set group =>   2
Atom  15H    basis set group =>   2
Atom  16H    basis set group =>   2
---------------------------------
AUXILIARY/J BASIS SET INFORMATION
---------------------------------
There are 2 groups of distinct atoms

 Group   1 Type C   : 12s5p4d2f1g contracted to 6s4p3d1f1g pattern {711111/2111/211/2/1}
 Group   2 Type H   : 5s2p1d contracted to 3s1p1d pattern {311/2/1}

Atom   0C    basis set group =>   1
Atom   1C    basis set group =>   1
Atom   2C    basis set group =>   1
Atom   3C    basis set group =>   1
Atom   4C    basis set group =>   1
Atom   5C    basis set group =>   1
Atom   6C    basis set group =>   1
Atom   7H    basis set group =>   2
Atom   8H    basis set group =>   2
Atom   9H    basis set group =>   2
Atom  10H    basis set group =>   2
Atom  11H    basis set group =>   2
Atom  12H    basis set group =>   2
Atom  13H    basis set group =>   2
Atom  14H    basis set group =>   2
Atom  15H    basis set group =>   2
Atom  16H    basis set group =>   2


           ************************************************************
           *        Program running with 4 parallel MPI-processes     *
           *              working on a common directory               *
           ************************************************************
------------------------------------------------------------------------------
                           ORCA GTO INTEGRAL CALCULATION
                           -- RI-GTO INTEGRALS CHOSEN --
------------------------------------------------------------------------------
------------------------------------------------------------------------------
                   ___                                                        
                  /   \      - P O W E R E D   B Y -                         
                 /     \                                                     
                 |  |  |   _    _      __       _____    __    __             
                 |  |  |  | |  | |    /  \     |  _  \  |  |  /  |          
                  \  \/   | |  | |   /    \    | | | |  |  | /  /          
                 / \  \   | |__| |  /  /\  \   | |_| |  |  |/  /          
                |  |  |   |  __  | /  /__\  \  |    /   |      \           
                |  |  |   | |  | | |   __   |  |    \   |  |\   \          
                \     /   | |  | | |  |  |  |  | |\  \  |  | \   \       
                 \___/    |_|  |_| |__|  |__|  |_| \__\ |__|  \__/        
                                                                              
                      - O R C A' S   B I G   F R I E N D -                    
                                      &                                       
                       - I N T E G R A L  F E E D E R -                       
                                                                              
 v1 FN, 2020, v2 2021                                                         
------------------------------------------------------------------------------


Reading SHARK input file pbeh-3c.SHARKINP.tmp ... ok
----------------------
SHARK INTEGRAL PACKAGE
----------------------

Number of atoms                             ...     17
Number of basis functions                   ...    125
Number of shells                            ...     69
Maximum angular momentum                    ...      2
Integral batch strategy                     ... SHARK/LIBINT Hybrid
RI-J (if used) integral strategy            ... SPLIT-RIJ (Revised 2003 algorithm where possible)
Printlevel                                  ...      1
Contraction scheme used                     ... SEGMENTED contraction
Coulomb Range Separation                    ... NOT USED
Exchange Range Separation                   ... NOT USED
Finite Nucleus Model                        ... NOT USED
Auxiliary Coulomb fitting basis             ... AVAILABLE
   # of basis functions in Aux-J            ...    453
   # of shells in Aux-J                     ...    155
   Maximum angular momentum in Aux-J        ...      4
Auxiliary J/K fitting basis                 ... NOT available
Auxiliary Correlation fitting basis         ... NOT available
Auxiliary 'external' fitting basis          ... NOT available
Integral threshold                          ...     2.500000e-11
Primitive cut-off                           ...     2.500000e-12
Primitive pair pre-selection threshold      ...     2.500000e-12

Calculating pre-screening integrals         ... done (  0.1 sec) Dimension = 69
Organizing shell pair data                  ... done (  0.4 sec)
Shell pair information
Total number of shell pairs                 ...      2415
Shell pairs after pre-screening             ...      2345
Total number of primitive shell pairs       ...      8767
Primitive shell pairs kept                  ...      6381
          la=0 lb=0:   1106 shell pairs
          la=1 lb=0:    672 shell pairs
          la=1 lb=1:    105 shell pairs
          la=2 lb=0:    336 shell pairs
          la=2 lb=1:     98 shell pairs
          la=2 lb=2:     28 shell pairs

Calculating one electron integrals          ... done (  0.0 sec)
Calculating RI/J V-Matrix + Cholesky decomp.... done (  0.1 sec)
Calculating Nuclear repulsion               ... done (  0.0 sec) ENN=    309.533617068374 Eh

SHARK setup successfully completed in   1.2 seconds

Maximum memory used throughout the entire GTOINT-calculation: 11.1 MB


           ************************************************************
           *        Program running with 4 parallel MPI-processes     *
           *              working on a common directory               *
           ************************************************************
-------------------------------------------------------------------------------
                                 ORCA SCF
-------------------------------------------------------------------------------

------------
SCF SETTINGS
------------
Hamiltonian:
 Density Functional     Method          .... DFT(GTOs)
 Exchange Functional    Exchange        .... PBE
   PBE kappa parameter   XKappa         ....  1.024500
   PBE mue parameter    XMuePBE         ....  0.123457
 Correlation Functional Correlation     .... PBE
   PBE beta parameter  CBetaPBE         ....  0.030000
 LDA part of GGA corr.  LDAOpt          .... PW91-LDA
 Gradients option       PostSCFGGA      .... off
 Hybrid DFT is turned on
   Fraction HF Exchange ScalHFX         ....  0.420000
   Scaling of DF-GGA-X  ScalDFX         ....  0.580000
   Scaling of DF-GGA-C  ScalDFC         ....  1.000000
   Scaling of DF-LDA-C  ScalLDAC        ....  1.000000
   Perturbative correction              ....  0.000000
   Density functional embedding theory  .... OFF
 RI-approximation to the Coulomb term is turned on
   Number of AuxJ basis functions       .... 453
   RIJ-ON(X) (HFX calculated with O(N)) .... on
   Number of AuxJ basis functions       .... 453
   RIJ-COSX (HFX calculated with COS-X)).... on


General Settings:
 Integral files         IntName         .... pbeh-3c
 Hartree-Fock type      HFTyp           .... RHF
 Total Charge           Charge          ....    0
 Multiplicity           Mult            ....    1
 Number of Electrons    NEL             ....   52
 Basis Dimension        Dim             ....  125
 Nuclear Repulsion      ENuc            ....    309.5336170684 Eh

Convergence Acceleration:
 DIIS                   CNVDIIS         .... on
   Start iteration      DIISMaxIt       ....    12
   Startup error        DIISStart       ....  0.200000
   # of expansion vecs  DIISMaxEq       ....     5
   Bias factor          DIISBfac        ....   1.050
   Max. coefficient     DIISMaxC        ....  10.000
 Trust-Rad. Augm. Hess. CNVTRAH         .... auto
   Auto Start mean grad. ratio tolernc. ....  1.125000
   Auto Start start iteration           ....    20
   Auto Start num. interpolation iter.  ....    10
   Max. Number of Micro iterations      ....    16
   Max. Number of Macro iterations      .... Maxiter - #DIIS iter
   Number of Davidson start vectors     ....     2
   Converg. threshold I  (grad. norm)   ....   1.000e-05
   Converg. threshold II (energy diff.) ....   1.000e-08
   Grad. Scal. Fac. for Micro threshold ....   0.100
   Minimum threshold for Micro iter.    ....   0.010
   NR start threshold (gradient norm)   ....   0.001
   Initial trust radius                 ....   0.400
   Minimum AH scaling param. (alpha)    ....   1.000
   Maximum AH scaling param. (alpha)    .... 1000.000
   Orbital update algorithm             .... Taylor
   White noise on init. David. guess    .... on
   Maximum white noise                  ....   0.010
   Quad. conv. algorithm                .... NR
   COSX micro iterations for RIJONX calc.... off
 SOSCF                  CNVSOSCF        .... on
   Start iteration      SOSCFMaxIt      ....   150
   Startup grad/error   SOSCFStart      ....  0.003300
 Level Shifting         CNVShift        .... on
   Level shift para.    LevelShift      ....    0.2500
   Turn off err/grad.   ShiftErr        ....    0.0010
 Zerner damping         CNVZerner       .... off
 Static damping         CNVDamp         .... on
   Fraction old density DampFac         ....    0.7000
   Max. Damping (<1)    DampMax         ....    0.9800
   Min. Damping (>=0)   DampMin         ....    0.0000
   Turn off err/grad.   DampErr         ....    0.1000
 Fernandez-Rico         CNVRico         .... off

SCF Procedure:
 Maximum # iterations   MaxIter         ....   125
 SCF integral mode      SCFMode         .... Direct
   Integral package                     .... SHARK and LIBINT hybrid scheme
 Reset frequency        DirectResetFreq ....    20
 Integral Threshold     Thresh          ....  2.500e-11 Eh
 Primitive CutOff       TCut            ....  2.500e-12 Eh

Convergence Tolerance:
 Convergence Check Mode ConvCheckMode   .... Total+1el-Energy
 Convergence forced     ConvForced      .... 0
 Energy Change          TolE            ....  1.000e-08 Eh
 1-El. energy change                    ....  1.000e-05 Eh
 Orbital Gradient       TolG            ....  1.000e-05
 Orbital Rotation angle TolX            ....  1.000e-05
 DIIS Error             TolErr          ....  5.000e-07


Diagonalization of the overlap matrix:
Smallest eigenvalue                        ... 1.555e-03
Time for diagonalization                   ...    0.003 sec
Threshold for overlap eigenvalues          ... 1.000e-08
Number of eigenvalues below threshold      ... 0
Time for construction of square roots      ...    0.016 sec
Total time needed                          ...    0.019 sec

--------------------------------
INITIAL GUESS: MINIMAL BASIS EHT
--------------------------------
The minimal basis has 45 functions
EHT matrix was diagonalized
Basis set overlap was calculated now projecting the orbitals
Using GuessMode=FMatrix for the initial guess
C*T matrix was formed
Effective Fockian was calculated
Effective Fockian was diagonalized
Initial density was built
                      ------------------
                      INITIAL GUESS DONE
                      ------------------
-------------------
DFT GRID GENERATION
-------------------

General Integration Accuracy     IntAcc      ... 4.959
Radial Grid Type                 RadialGrid  ... OptM3 with GC (2021)
Angular Grid (max. ang.)         AngularGrid ... 6 (Lebedev-590)
Angular grid pruning method      GridPruning ... 4 (adaptive)
Weight generation scheme         WeightScheme... Becke
Basis function cutoff            BFCut       ... 1.0000e-11
Integration weight cutoff        WCut        ... 1.0000e-14
Angular grids for H and He will be reduced by one unit
Partially contracted basis set               ... off
Rotationally invariant grid construction     ... off

Total number of grid points                  ...   185492
Total number of batches                      ...     2907
Average number of points per batch           ...       63
Average number of grid points per atom       ...    10911
Time for grid setup =    2.727 sec

--------------------
COSX GRID GENERATION
--------------------

GRIDX 1
-------
General Integration Accuracy     IntAcc      ... 4.020
Radial Grid Type                 RadialGrid  ... OptM3 with GC (2021)
Angular Grid (max. ang.)         AngularGrid ... 2 (Lebedev-110)
Angular grid pruning method      GridPruning ... 4 (adaptive)
Weight generation scheme         WeightScheme... Becke
Basis function cutoff            BFCut       ... 1.0000e-11
Integration weight cutoff        WCut        ... 1.0000e-14
Angular grids for H and He will be reduced by one unit
Partially contracted basis set               ... on
Rotationally invariant grid construction     ... off

Total number of grid points                  ...    19922
Total number of batches                      ...      319
Average number of points per batch           ...       62
Average number of grid points per atom       ...     1172
UseSFitting                                  ... on

GRIDX 2
-------
General Integration Accuracy     IntAcc      ... 4.338
Radial Grid Type                 RadialGrid  ... OptM3 with GC (2021)
Angular Grid (max. ang.)         AngularGrid ... 3 (Lebedev-194)
Angular grid pruning method      GridPruning ... 4 (adaptive)
Weight generation scheme         WeightScheme... Becke
Basis function cutoff            BFCut       ... 1.0000e-11
Integration weight cutoff        WCut        ... 1.0000e-14
Angular grids for H and He will be reduced by one unit
Partially contracted basis set               ... on
Rotationally invariant grid construction     ... off

Total number of grid points                  ...    43517
Total number of batches                      ...      688
Average number of points per batch           ...       63
Average number of grid points per atom       ...     2560
UseSFitting                                  ... on

GRIDX 3
-------
General Integration Accuracy     IntAcc      ... 4.871
Radial Grid Type                 RadialGrid  ... OptM3 with GC (2021)
Angular Grid (max. ang.)         AngularGrid ... 4 (Lebedev-302)
Angular grid pruning method      GridPruning ... 4 (adaptive)
Weight generation scheme         WeightScheme... Becke
Basis function cutoff            BFCut       ... 1.0000e-11
Integration weight cutoff        WCut        ... 1.0000e-14
Angular grids for H and He will be reduced by one unit
Partially contracted basis set               ... on
Rotationally invariant grid construction     ... off

Total number of grid points                  ...    84902
Total number of batches                      ...     1336
Average number of points per batch           ...       63
Average number of grid points per atom       ...     4994
UseSFitting                                  ... on

Time for X-Grid setup             =    3.550 sec

--------------
SCF ITERATIONS
--------------
ITER       Energy         Delta-E        Max-DP      RMS-DP      [F,P]     Damp
               ***  Starting incremental Fock matrix formation  ***
  0   -271.5877564529   0.000000000000 0.09271325  0.00407573  0.4090283 0.7000
  1   -271.7511136451  -0.163357192205 0.06783529  0.00303126  0.2875001 0.7000
  2   -271.8680012424  -0.116887597290 0.04921253  0.00226920  0.2010412 0.7000
                               ***Turning on DIIS***
  3   -271.9511048687  -0.083103626317 0.03556069  0.00169626  0.1406908 0.7000
  4   -272.0100895989  -0.058984730195 0.08917425  0.00444503  0.0985318 0.0000
  5   -272.1510686179  -0.140979019004 0.00352876  0.00026898  0.0034316 0.0000
                      *** Initiating the SOSCF procedure ***
                           *** Shutting down DIIS ***
                      *** Re-Reading the Fockian *** 
                      *** Removing any level shift *** 
ITER      Energy       Delta-E        Grad      Rot      Max-DP    RMS-DP
  6   -272.15124833  -0.0001797108  0.001452  0.001452  0.001418  0.000112
               *** Restarting incremental Fock matrix formation ***
  7   -272.15127523  -0.0000269049  0.000482  0.000665  0.000842  0.000062
  8   -272.15127902  -0.0000037852  0.000290  0.000236  0.000375  0.000032
  9   -272.15128109  -0.0000020691  0.000046  0.000081  0.000104  0.000008
 10   -272.15128113  -0.0000000455  0.000007  0.000008  0.000013  0.000001
 11   -272.15128114  -0.0000000019  0.000003  0.000002  0.000005  0.000000
                 **** Energy Check signals convergence ****
              ***Rediagonalizing the Fockian in SOSCF/NRSCF***

               *****************************************************
               *                     SUCCESS                       *
               *           SCF CONVERGED AFTER  12 CYCLES          *
               *****************************************************

Old exchange energy                            =    -16.751543825 Eh
New exchange energy                            =    -16.751534181 Eh
Exchange energy change after final integration =      0.000009644 Eh
Total energy after final integration           =   -272.151271493 Eh
Final COS-X integration done in                =     3.919 sec

----------------
TOTAL SCF ENERGY
----------------

Total Energy       :         -272.15127149 Eh           -7405.61259 eV

Components:
Nuclear Repulsion  :          309.53361707 Eh            8422.83793 eV
Electronic Energy  :         -581.68488856 Eh          -15828.45052 eV
One Electron Energy:         -979.43822105 Eh          -26651.86895 eV
Two Electron Energy:          397.75333249 Eh           10823.41843 eV
Max COSX asymmetry :            0.00000118 Eh               0.00003 eV

Virial components:
Potential Energy   :         -542.05938149 Eh          -14750.18566 eV
Kinetic Energy     :          269.90811000 Eh            7344.57306 eV
Virial Ratio       :            2.00831083


DFT components:
N(Alpha)           :       25.999996306879 electrons
N(Beta)            :       25.999996306879 electrons
N(Total)           :       51.999992613759 electrons
E(X)               :      -22.209751048921 Eh       
E(C)               :       -2.240446007781 Eh       
E(XC)              :      -24.450197056702 Eh       
DFET-embed. en.    :        0.000000000000 Eh       

---------------
SCF CONVERGENCE
---------------

  Last Energy change         ...   -1.8031e-09  Tolerance :   1.0000e-08
  Last MAX-Density change    ...    5.5511e-16  Tolerance :   1.0000e-07
  Last RMS-Density change    ...    2.7201e-17  Tolerance :   5.0000e-09
  Last Orbital Gradient      ...    2.4665e-07  Tolerance :   1.0000e-05
  Last Orbital Rotation      ...    3.9355e-07  Tolerance :   1.0000e-05

             **** THE GBW FILE WAS UPDATED (pbeh-3c.gbw) ****
             **** DENSITY pbeh-3c.scfp WAS UPDATED ****
             **** ENERGY FILE WAS UPDATED (pbeh-3c.en.tmp) ****
             **** THE GBW FILE WAS UPDATED (pbeh-3c.gbw) ****
             **** DENSITY pbeh-3c.scfp WAS UPDATED ****
----------------
ORBITAL ENERGIES
----------------

  NO   OCC          E(Eh)            E(eV) 
   0   2.0000     -10.440759      -284.1075 
   1   2.0000     -10.440708      -284.1061 
   2   2.0000     -10.431531      -283.8564 
   3   2.0000     -10.430549      -283.8297 
   4   2.0000     -10.430274      -283.8222 
   5   2.0000     -10.430078      -283.8169 
   6   2.0000     -10.428841      -283.7832 
   7   2.0000      -0.981898       -26.7188 
   8   2.0000      -0.827743       -22.5240 
   9   2.0000      -0.799589       -21.7579 
  10   2.0000      -0.775707       -21.1081 
  11   2.0000      -0.651261       -17.7217 
  12   2.0000      -0.625668       -17.0253 
  13   2.0000      -0.578555       -15.7433 
  14   2.0000      -0.575561       -15.6618 
  15   2.0000      -0.534192       -14.5361 
  16   2.0000      -0.496716       -13.5163 
  17   2.0000      -0.448232       -12.1970 
  18   2.0000      -0.433436       -11.7944 
  19   2.0000      -0.398276       -10.8376 
  20   2.0000      -0.395231       -10.7548 
  21   2.0000      -0.390976       -10.6390 
  22   2.0000      -0.380841       -10.3632 
  23   2.0000      -0.370969       -10.0946 
  24   2.0000      -0.347062        -9.4440 
  25   2.0000      -0.277651        -7.5553 
  26   0.0000       0.049324         1.3422 
  27   0.0000       0.145443         3.9577 
  28   0.0000       0.164549         4.4776 
  29   0.0000       0.188115         5.1189 
  30   0.0000       0.196261         5.3405 
  31   0.0000       0.202413         5.5079 
  32   0.0000       0.217354         5.9145 
  33   0.0000       0.221870         6.0374 
  34   0.0000       0.224216         6.1012 
  35   0.0000       0.234500         6.3811 
  36   0.0000       0.239464         6.5161 
  37   0.0000       0.240769         6.5517 
  38   0.0000       0.264834         7.2065 
  39   0.0000       0.275411         7.4943 
  40   0.0000       0.282412         7.6848 
  41   0.0000       0.294796         8.0218 
  42   0.0000       0.329966         8.9788 
  43   0.0000       0.373345        10.1592 
  44   0.0000       0.389848        10.6083 
  45   0.0000       0.491962        13.3870 
  46   0.0000       0.517965        14.0946 
  47   0.0000       0.544832        14.8256 
  48   0.0000       0.567434        15.4407 
  49   0.0000       0.574113        15.6224 
  50   0.0000       0.582339        15.8462 
  51   0.0000       0.628965        17.1150 
  52   0.0000       0.629194        17.1212 
  53   0.0000       0.655275        17.8309 
  54   0.0000       0.664387        18.0789 
  55   0.0000       0.678747        18.4697 
  56   0.0000       0.682330        18.5671 
  57   0.0000       0.697384        18.9768 
  58   0.0000       0.712149        19.3786 
  59   0.0000       0.786275        21.3956 
  60   0.0000       0.786617        21.4049 
  61   0.0000       0.825418        22.4608 
  62   0.0000       0.878729        23.9114 
  63   0.0000       0.913519        24.8581 
  64   0.0000       0.930914        25.3315 
  65   0.0000       0.955664        26.0050 
  66   0.0000       0.971110        26.4252 
  67   0.0000       0.990832        26.9619 
  68   0.0000       1.018500        27.7148 
  69   0.0000       1.043267        28.3887 
  70   0.0000       1.046156        28.4674 
  71   0.0000       1.062013        28.8988 
  72   0.0000       1.071257        29.1504 
  73   0.0000       1.072910        29.1954 
  74   0.0000       1.083177        29.4747 
  75   0.0000       1.106590        30.1118 
  76   0.0000       1.152840        31.3704 
  77   0.0000       1.290561        35.1179 
  78   0.0000       1.335062        36.3289 
  79   0.0000       1.344031        36.5729 
  80   0.0000       1.375848        37.4387 
  81   0.0000       1.472141        40.0590 
  82   0.0000       1.488948        40.5163 
  83   0.0000       1.585289        43.1379 
  84   0.0000       1.609627        43.8002 
  85   0.0000       1.690253        45.9941 
  86   0.0000       1.708969        46.5034 
  87   0.0000       1.781083        48.4657 
  88   0.0000       1.808059        49.1998 
  89   0.0000       1.811760        49.3005 
  90   0.0000       1.858381        50.5691 
  91   0.0000       1.884528        51.2806 
  92   0.0000       1.978541        53.8388 
  93   0.0000       1.999413        54.4068 
  94   0.0000       2.041663        55.5565 
  95   0.0000       2.070514        56.3416 
  96   0.0000       2.100301        57.1521 
  97   0.0000       2.150527        58.5188 
  98   0.0000       2.184530        59.4441 
  99   0.0000       2.198824        59.8330 
 100   0.0000       2.219950        60.4079 
 101   0.0000       2.226830        60.5951 
 102   0.0000       2.276234        61.9395 
 103   0.0000       2.344606        63.8000 
 104   0.0000       2.393861        65.1403 
 105   0.0000       2.435390        66.2703 
 106   0.0000       2.488901        67.7264 
 107   0.0000       2.550408        69.4001 
 108   0.0000       2.555538        69.5397 
 109   0.0000       2.577191        70.1289 
 110   0.0000       2.609709        71.0138 
 111   0.0000       2.653879        72.2157 
 112   0.0000       2.689227        73.1776 
 113   0.0000       2.731809        74.3363 
 114   0.0000       2.761402        75.1416 
 115   0.0000       2.872417        78.1624 
 116   0.0000       2.948162        80.2236 
 117   0.0000       3.038379        82.6785 
 118   0.0000      13.496295       367.2529 
 119   0.0000      13.803559       375.6139 
 120   0.0000      13.903105       378.3227 
 121   0.0000      13.923250       378.8709 
 122   0.0000      14.098863       383.6496 
 123   0.0000      14.197946       386.3458 
 124   0.0000      14.321857       389.7175 

                    ********************************
                    * MULLIKEN POPULATION ANALYSIS *
                    ********************************

-----------------------
MULLIKEN ATOMIC CHARGES
-----------------------
   0 C :   -0.304374
   1 C :   -0.177862
   2 C :   -0.177862
   3 C :   -0.304374
   4 C :   -0.394968
   5 C :   -0.416285
   6 C :   -0.416284
   7 H :    0.212617
   8 H :    0.212393
   9 H :    0.212393
  10 H :    0.212617
  11 H :    0.234443
  12 H :    0.211967
  13 H :    0.221714
  14 H :    0.226076
  15 H :    0.221714
  16 H :    0.226075
Sum of atomic charges:   -0.0000000

--------------------------------
MULLIKEN REDUCED ORBITAL CHARGES
--------------------------------
  0 C s       :     3.320550  s :     3.320550
      pz      :     1.102325  p :     2.933433
      px      :     0.927124
      py      :     0.903984
      dz2     :     0.014109  d :     0.050391
      dxz     :     0.011086
      dyz     :     0.005745
      dx2y2   :     0.008138
      dxy     :     0.011314
  1 C s       :     3.240013  s :     3.240013
      pz      :     0.953413  p :     2.897873
      px      :     1.002107
      py      :     0.942352
      dz2     :     0.009359  d :     0.039977
      dxz     :     0.010351
      dyz     :     0.011288
      dx2y2   :     0.002924
      dxy     :     0.006055
  2 C s       :     3.240013  s :     3.240013
      pz      :     0.953414  p :     2.897872
      px      :     1.002107
      py      :     0.942352
      dz2     :     0.009359  d :     0.039977
      dxz     :     0.010351
      dyz     :     0.011288
      dx2y2   :     0.002924
      dxy     :     0.006055
  3 C s       :     3.320551  s :     3.320551
      pz      :     1.102325  p :     2.933432
      px      :     0.927124
      py      :     0.903984
      dz2     :     0.014109  d :     0.050391
      dxz     :     0.011086
      dyz     :     0.005745
      dx2y2   :     0.008138
      dxy     :     0.011314
  4 C s       :     3.328029  s :     3.328029
      pz      :     0.906144  p :     3.021941
      px      :     0.952054
      py      :     1.163743
      dz2     :     0.009598  d :     0.044998
      dxz     :     0.011237
      dyz     :     0.003380
      dx2y2   :     0.004617
      dxy     :     0.016167
  5 C s       :     3.313680  s :     3.313680
      pz      :     0.957973  p :     3.060505
      px      :     1.102050
      py      :     1.000482
      dz2     :     0.010384  d :     0.042099
      dxz     :     0.007776
      dyz     :     0.006732
      dx2y2   :     0.009197
      dxy     :     0.008010
  6 C s       :     3.313680  s :     3.313680
      pz      :     0.957973  p :     3.060505
      px      :     1.102050
      py      :     1.000482
      dz2     :     0.010384  d :     0.042099
      dxz     :     0.007776
      dyz     :     0.006732
      dx2y2   :     0.009197
      dxy     :     0.008010
  7 H s       :     0.787383  s :     0.787383
  8 H s       :     0.787607  s :     0.787607
  9 H s       :     0.787607  s :     0.787607
 10 H s       :     0.787383  s :     0.787383
 11 H s       :     0.765557  s :     0.765557
 12 H s       :     0.788033  s :     0.788033
 13 H s       :     0.778286  s :     0.778286
 14 H s       :     0.773924  s :     0.773924
 15 H s       :     0.778286  s :     0.778286
 16 H s       :     0.773925  s :     0.773925


                     *******************************
                     * LOEWDIN POPULATION ANALYSIS *
                     *******************************

----------------------
LOEWDIN ATOMIC CHARGES
----------------------
   0 C :   -0.147922
   1 C :   -0.143208
   2 C :   -0.143207
   3 C :   -0.147922
   4 C :   -0.211191
   5 C :   -0.230249
   6 C :   -0.230249
   7 H :    0.122497
   8 H :    0.130155
   9 H :    0.130155
  10 H :    0.122497
  11 H :    0.130055
  12 H :    0.118472
  13 H :    0.124311
  14 H :    0.125748
  15 H :    0.124311
  16 H :    0.125748

-------------------------------
LOEWDIN REDUCED ORBITAL CHARGES
-------------------------------
  0 C s       :     2.881030  s :     2.881030
      pz      :     1.073590  p :     3.157564
      px      :     1.042878
      py      :     1.041095
      dz2     :     0.028536  d :     0.109328
      dxz     :     0.024493
      dyz     :     0.011415
      dx2y2   :     0.018104
      dxy     :     0.026780
  1 C s       :     2.913249  s :     2.913249
      pz      :     1.106418  p :     3.140658
      px      :     1.023382
      py      :     1.010858
      dz2     :     0.025689  d :     0.089300
      dxz     :     0.021289
      dyz     :     0.024653
      dx2y2   :     0.006189
      dxy     :     0.011482
  2 C s       :     2.913249  s :     2.913249
      pz      :     1.106418  p :     3.140658
      px      :     1.023382
      py      :     1.010858
      dz2     :     0.025689  d :     0.089300
      dxz     :     0.021289
      dyz     :     0.024653
      dx2y2   :     0.006189
      dxy     :     0.011482
  3 C s       :     2.881030  s :     2.881030
      pz      :     1.073590  p :     3.157564
      px      :     1.042878
      py      :     1.041095
      dz2     :     0.028536  d :     0.109328
      dxz     :     0.024493
      dyz     :     0.011415
      dx2y2   :     0.018104
      dxy     :     0.026780
  4 C s       :     2.923935  s :     2.923935
      pz      :     1.032755  p :     3.195494
      px      :     1.057809
      py      :     1.104931
      dz2     :     0.019614  d :     0.091762
      dxz     :     0.027778
      dyz     :     0.007108
      dx2y2   :     0.008652
      dxy     :     0.028610
  5 C s       :     2.922795  s :     2.922795
      pz      :     1.058777  p :     3.221991
      px      :     1.101210
      py      :     1.062003
      dz2     :     0.023890  d :     0.085463
      dxz     :     0.015088
      dyz     :     0.013824
      dx2y2   :     0.016983
      dxy     :     0.015679
  6 C s       :     2.922795  s :     2.922795
      pz      :     1.058777  p :     3.221991
      px      :     1.101210
      py      :     1.062003
      dz2     :     0.023890  d :     0.085463
      dxz     :     0.015088
      dyz     :     0.013824
      dx2y2   :     0.016983
      dxy     :     0.015679
  7 H s       :     0.877503  s :     0.877503
  8 H s       :     0.869845  s :     0.869845
  9 H s       :     0.869845  s :     0.869845
 10 H s       :     0.877503  s :     0.877503
 11 H s       :     0.869945  s :     0.869945
 12 H s       :     0.881528  s :     0.881528
 13 H s       :     0.875689  s :     0.875689
 14 H s       :     0.874252  s :     0.874252
 15 H s       :     0.875689  s :     0.875689
 16 H s       :     0.874252  s :     0.874252


                      *****************************
                      * MAYER POPULATION ANALYSIS *
                      *****************************

  NA   - Mulliken gross atomic population
  ZA   - Total nuclear charge
  QA   - Mulliken gross atomic charge
  VA   - Mayer's total valence
  BVA  - Mayer's bonded valence
  FA   - Mayer's free valence

  ATOM       NA         ZA         QA         VA         BVA        FA
  0 C      6.3044     6.0000    -0.3044     3.7701     3.7701    -0.0000
  1 C      6.1779     6.0000    -0.1779     3.7364     3.7364    -0.0000
  2 C      6.1779     6.0000    -0.1779     3.7364     3.7364    -0.0000
  3 C      6.3044     6.0000    -0.3044     3.7701     3.7701    -0.0000
  4 C      6.3950     6.0000    -0.3950     3.6587     3.6587     0.0000
  5 C      6.4163     6.0000    -0.4163     3.6958     3.6958    -0.0000
  6 C      6.4163     6.0000    -0.4163     3.6958     3.6958    -0.0000
  7 H      0.7874     1.0000     0.2126     0.9273     0.9273    -0.0000
  8 H      0.7876     1.0000     0.2124     0.9257     0.9257     0.0000
  9 H      0.7876     1.0000     0.2124     0.9257     0.9257     0.0000
 10 H      0.7874     1.0000     0.2126     0.9273     0.9273    -0.0000
 11 H      0.7656     1.0000     0.2344     0.9121     0.9121    -0.0000
 12 H      0.7880     1.0000     0.2120     0.9163     0.9163     0.0000
 13 H      0.7783     1.0000     0.2217     0.9105     0.9105    -0.0000
 14 H      0.7739     1.0000     0.2261     0.9113     0.9113    -0.0000
 15 H      0.7783     1.0000     0.2217     0.9105     0.9105    -0.0000
 16 H      0.7739     1.0000     0.2261     0.9113     0.9113    -0.0000

  Mayer bond orders larger than 0.100000
B(  0-C ,  1-C ) :   0.9859 B(  0-C ,  4-C ) :   0.9498 B(  0-C ,  5-C ) :   0.9600 
B(  0-C ,  7-H ) :   0.9310 B(  1-C ,  2-C ) :   1.8723 B(  1-C ,  8-H ) :   0.9272 
B(  2-C ,  3-C ) :   0.9859 B(  2-C ,  9-H ) :   0.9272 B(  3-C ,  4-C ) :   0.9498 
B(  3-C ,  6-C ) :   0.9600 B(  3-C , 10-H ) :   0.9310 B(  4-C , 11-H ) :   0.9218 
B(  4-C , 12-H ) :   0.9251 B(  5-C ,  6-C ) :   0.9582 B(  5-C , 13-H ) :   0.9235 
B(  5-C , 14-H ) :   0.9276 B(  6-C , 15-H ) :   0.9235 B(  6-C , 16-H ) :   0.9276 


-------
TIMINGS
-------

Total SCF time: 0 days 0 hours 1 min 9 sec 

Total time                  ....      69.305 sec
Sum of individual times     ....      66.206 sec  ( 95.5%)

Fock matrix formation       ....      57.958 sec  ( 83.6%)
  Split-RI-J                ....       6.724 sec  ( 11.6% of F)
  Chain of spheres X        ....      27.638 sec  ( 47.7% of F)
  XC integration            ....      13.861 sec  ( 23.9% of F)
    Basis function eval.    ....       3.504 sec  ( 25.3% of XC)
    Density eval.           ....       2.071 sec  ( 14.9% of XC)
    XC-Functional eval.     ....       1.350 sec  (  9.7% of XC)
    XC-Potential eval.      ....       1.242 sec  (  9.0% of XC)
Diagonalization             ....       0.433 sec  (  0.6%)
Density matrix formation    ....       0.008 sec  (  0.0%)
Population analysis         ....       0.014 sec  (  0.0%)
Initial guess               ....       0.111 sec  (  0.2%)
Orbital Transformation      ....       0.000 sec  (  0.0%)
Orbital Orthonormalization  ....       0.000 sec  (  0.0%)
DIIS solution               ....       0.828 sec  (  1.2%)
SOSCF solution              ....       0.576 sec  (  0.8%)
Grid generation             ....       6.277 sec  (  9.1%)

Maximum memory used throughout the entire SCF-calculation: 54.8 MB


-------------------------------------------------------------------------------
                          DFT DISPERSION CORRECTION                            
                                                                               
                              DFTD3 V3.1  Rev 1                                
                          USING Becke-Johnson damping                          
-------------------------------------------------------------------------------
The PBEh-3c composite method is recognized
Using three-body term ABC
Active option DFTDOPT                   ...         4   

molecular C6(AA) [au] = 2377.519186 


            DFT-D V3
 parameters
 s6 scaling factor         :     1.0000 
 a1 scaling factor         :     0.4860 
 s8 scaling factor         :     0.0000 
 a2 scaling factor         :     4.5000 
 Damping factor alpha9(ATM):    16.0000 
 ad hoc parameters k1-k3   :    16.0000     1.3333    -4.0000 

 Edisp/kcal,au: -5.853857154823  -0.009328714183 
 E6   /kcal   :  -5.887661439 
 E8   /kcal   :  -0.000000000 
 E6(ABC)      :   0.033804284 
 % E8         :   0.000000000 
 % E6(ABC)    :  -0.577470255 

-------------------------   ----------------
Dispersion correction           -0.009328714
-------------------------   ----------------

------------------   -----------------
gCP correction             0.027257302
------------------   -----------------

-------------------------   --------------------
FINAL SINGLE POINT ENERGY      -272.133342905789
-------------------------   --------------------


                            ***************************************
                            *     ORCA property calculations      *
                            ***************************************

                                    ---------------------
                                    Active property flags
                                    ---------------------
   (+) Dipole Moment


------------------------------------------------------------------------------
                       ORCA ELECTRIC PROPERTIES CALCULATION
------------------------------------------------------------------------------

Dipole Moment Calculation                       ... on
Quadrupole Moment Calculation                   ... off
Polarizability Calculation                      ... off
GBWName                                         ... pbeh-3c.gbw
Electron density                                ... pbeh-3c.scfp
The origin for moment calculation is the CENTER OF MASS  = ( 0.012941,  0.262909  0.000000)

-------------
DIPOLE MOMENT
-------------
                                X             Y             Z
Electronic contribution:      0.14839       2.29050       0.00000
Nuclear contribution   :     -0.11922      -2.42219       0.00000
                        -----------------------------------------
Total Dipole Moment    :      0.02917      -0.13168       0.00000
                        -----------------------------------------
Magnitude (a.u.)       :      0.13487
Magnitude (Debye)      :      0.34282



--------------------
Rotational spectrum 
--------------------
 
Rotational constants in cm-1:     0.132551     0.115762     0.101735 
Rotational constants in MHz :  3973.793091  3470.450880  3049.944665 

 Dipole components along the rotational axes: 
x,y,z [a.u.] :    -0.131681     0.000000    -0.029170 
x,y,z [Debye]:    -0.334706     0.000000    -0.074145 

 

Timings for individual modules:

Sum of individual times         ...       71.192 sec (=   1.187 min)
GTO integral calculation        ...        1.605 sec (=   0.027 min)   2.3 %
SCF iterations                  ...       69.587 sec (=   1.160 min)  97.7 %
                             ****ORCA TERMINATED NORMALLY****
TOTAL RUN TIME: 0 days 0 hours 1 minutes 12 seconds 340 msec
