
                                 *****************
                                 * O   R   C   A *
                                 *****************

                                            #,                                       
                                            ###                                      
                                            ####                                     
                                            #####                                    
                                            ######                                   
                                           ########,                                 
                                     ,,################,,,,,                         
                               ,,#################################,,                 
                          ,,##########################################,,             
                       ,#########################################, ''#####,          
                    ,#############################################,,   '####,        
                  ,##################################################,,,,####,       
                ,###########''''           ''''###############################       
              ,#####''   ,,,,##########,,,,          '''####'''          '####       
            ,##' ,,,,###########################,,,                        '##       
           ' ,,###''''                  '''############,,,                           
         ,,##''                                '''############,,,,        ,,,,,,###''
      ,#''                                            '''#######################'''  
     '                                                          ''''####''''         
             ,#######,   #######,   ,#######,      ##                                
            ,#'     '#,  ##    ##  ,#'     '#,    #''#        ######   ,####,        
            ##       ##  ##   ,#'  ##            #'  '#       #        #'  '#        
            ##       ##  #######   ##           ,######,      #####,   #    #        
            '#,     ,#'  ##    ##  '#,     ,#' ,#      #,         ##   #,  ,#        
             '#######'   ##     ##  '#######'  #'      '#     #####' # '####'        



                  #######################################################
                  #                        -***-                        #
                  #          Department of theory and spectroscopy      #
                  #    Directorship and core code : Frank Neese         #
                  #        Max Planck Institute fuer Kohlenforschung    #
                  #                Kaiser Wilhelm Platz 1               #
                  #                 D-45470 Muelheim/Ruhr               #
                  #                      Germany                        #
                  #                                                     #
                  #                  All rights reserved                #
                  #                        -***-                        #
                  #######################################################


                         Program Version 5.0.3 -  RELEASE  -


 With contributions from (in alphabetic order):
   Daniel Aravena         : Magnetic Suceptibility
   Michael Atanasov       : Ab Initio Ligand Field Theory (pilot matlab implementation)
   Alexander A. Auer      : GIAO ZORA, VPT2 properties, NMR spectrum
   Ute Becker             : Parallelization
   Giovanni Bistoni       : ED, misc. LED, open-shell LED, HFLD
   Martin Brehm           : Molecular dynamics
   Dmytro Bykov           : SCF Hessian
   Vijay G. Chilkuri      : MRCI spin determinant printing, contributions to CSF-ICE
   Dipayan Datta          : RHF DLPNO-CCSD density
   Achintya Kumar Dutta   : EOM-CC, STEOM-CC
   Dmitry Ganyushin       : Spin-Orbit,Spin-Spin,Magnetic field MRCI
   Miquel Garcia          : C-PCM and meta-GGA Hessian, CC/C-PCM, Gaussian charge scheme
   Yang Guo               : DLPNO-NEVPT2, F12-NEVPT2, CIM, IAO-localization
   Andreas Hansen         : Spin unrestricted coupled pair/coupled cluster methods
   Benjamin Helmich-Paris : MC-RPA, TRAH-SCF, COSX integrals
   Lee Huntington         : MR-EOM, pCC
   Robert Izsak           : Overlap fitted RIJCOSX, COSX-SCS-MP3, EOM
   Marcus Kettner         : VPT2
   Christian Kollmar      : KDIIS, OOCD, Brueckner-CCSD(T), CCSD density, CASPT2, CASPT2-K
   Simone Kossmann        : Meta GGA functionals, TD-DFT gradient, OOMP2, MP2 Hessian
   Martin Krupicka        : Initial AUTO-CI
   Lucas Lang             : DCDCAS
   Marvin Lechner         : AUTO-CI (C++ implementation), FIC-MRCC
   Dagmar Lenk            : GEPOL surface, SMD
   Dimitrios Liakos       : Extrapolation schemes; Compound Job, initial MDCI parallelization
   Dimitrios Manganas     : Further ROCIS development; embedding schemes
   Dimitrios Pantazis     : SARC Basis sets
   Anastasios Papadopoulos: AUTO-CI, single reference methods and gradients
   Taras Petrenko         : DFT Hessian,TD-DFT gradient, ASA, ECA, R-Raman, ABS, FL, XAS/XES, NRVS
   Peter Pinski           : DLPNO-MP2, DLPNO-MP2 Gradient
   Christoph Reimann      : Effective Core Potentials
   Marius Retegan         : Local ZFS, SOC
   Christoph Riplinger    : Optimizer, TS searches, QM/MM, DLPNO-CCSD(T), (RO)-DLPNO pert. Triples
   Tobias Risthaus        : Range-separated hybrids, TD-DFT gradient, RPA, STAB
   Michael Roemelt        : Original ROCIS implementation
   Masaaki Saitow         : Open-shell DLPNO-CCSD energy and density
   Barbara Sandhoefer     : DKH picture change effects
   Avijit Sen             : IP-ROCIS
   Kantharuban Sivalingam : CASSCF convergence, NEVPT2, FIC-MRCI
   Bernardo de Souza      : ESD, SOC TD-DFT
   Georgi Stoychev        : AutoAux, RI-MP2 NMR, DLPNO-MP2 response
   Willem Van den Heuvel  : Paramagnetic NMR
   Boris Wezisla          : Elementary symmetry handling
   Frank Wennmohs         : Technical directorship


 We gratefully acknowledge several colleagues who have allowed us to
 interface, adapt or use parts of their codes:
   Stefan Grimme, W. Hujo, H. Kruse, P. Pracht,  : VdW corrections, initial TS optimization,
                  C. Bannwarth, S. Ehlert          DFT functionals, gCP, sTDA/sTD-DF
   Ed Valeev, F. Pavosevic, A. Kumar             : LibInt (2-el integral package), F12 methods
   Garnet Chan, S. Sharma, J. Yang, R. Olivares  : DMRG
   Ulf Ekstrom                                   : XCFun DFT Library
   Mihaly Kallay                                 : mrcc  (arbitrary order and MRCC methods)
   Jiri Pittner, Ondrej Demel                    : Mk-CCSD
   Frank Weinhold                                : gennbo (NPA and NBO analysis)
   Christopher J. Cramer and Donald G. Truhlar   : smd solvation model
   Lars Goerigk                                  : TD-DFT with DH, B97 family of functionals
   V. Asgeirsson, H. Jonsson                     : NEB implementation
   FAccTs GmbH                                   : IRC, NEB, NEB-TS, DLPNO-Multilevel, CI-OPT
                                                   MM, QMMM, 2- and 3-layer-ONIOM, Crystal-QMMM,
                                                   LR-CPCM, SF, NACMEs, symmetry and pop. for TD-DFT,
                                                   nearIR, NL-DFT gradient (VV10), updates on ESD,
                                                   ML-optimized integration grids
   S Lehtola, MJT Oliveira, MAL Marques          : LibXC Library
   Liviu Ungur et al                             : ANISO software


 Your calculation uses the libint2 library for the computation of 2-el integrals
 For citations please refer to: http://libint.valeyev.net

 Your ORCA version has been built with support for libXC version: 5.1.0
 For citations please refer to: https://tddft.org/programs/libxc/

 This ORCA versions uses:
   CBLAS   interface :  Fast vector & matrix operations
   LAPACKE interface :  Fast linear algebra routines
   SCALAPACK package :  Parallel linear algebra routines
   Shared memory     :  Shared parallel matrices
   BLAS/LAPACK       :  OpenBLAS 0.3.15  USE64BITINT DYNAMIC_ARCH NO_AFFINITY Haswell SINGLE_THREADED
        Core in use  :  Haswell
   Copyright (c) 2011-2014, The OpenBLAS Project




***************************************
The coordinates will be read from file: 2p2.xyz
***************************************


Your calculation utilizes the geometrical counterpoise correction gCP
Please cite in your paper:
H.Kruse, S. Grimme J.Chem.Phys., 136, (2012), 154101 
   

Your calculation utilizes the atom-pairwise dispersion correction
with the Becke-Johnson damping scheme (D3BJ)
Cite in your paper:
S.Grimme, S.Ehrlich, L.Goerigk, J Comput Chem, (2011), 32, 1456–1465 
S.Grimme, J.Antony, S.Ehrlich and H.Krieg, J.Chem.Phys., 132, (2010), 154104 
   

Your calculation employs the composite approach PBEh-3c.
Please cite in your paper:
S. Grimme, J. G. Brandenburg, C. Bannwarth, A. Hansen J.Chem.Phys., 143, (2015), 054107 
   

================================================================================

----- Orbital basis set information -----
Your calculation utilizes the basis: def2-mSVP

----- AuxJ basis set information -----
Your calculation utilizes the auxiliary basis: def2/J
   F. Weigend, Phys. Chem. Chem. Phys. 8, 1057 (2006).

================================================================================
                                        WARNINGS
                       Please study these warnings very carefully!
================================================================================


WARNING: your system is open-shell and RHF/RKS was chosen
  ===> : WILL SWITCH to UHF/UKS


INFO   : the flag for use of the SHARK integral package has been found!

================================================================================
                                       INPUT FILE
================================================================================
NAME = pbeh-3c.inp
|  1> ! PBEh-3c def2/J TightSCF DefGrid3
|  2> 
|  3> %maxcore 60000
|  4> 
|  5> %pal
|  6> nprocs 4
|  7> end
|  8> 
|  9> *xyzfile 0 2 2p2.xyz
| 10> 
| 11>                          ****END OF INPUT****
================================================================================

                       ****************************
                       * Single Point Calculation *
                       ****************************

---------------------------------
CARTESIAN COORDINATES (ANGSTROEM)
---------------------------------
  C     -0.765945    0.023345    0.000000
  C      0.772767    0.032144    0.000000
  O      1.162811   -1.270978    0.000000
  H     -1.115837    1.056954    0.000000
  H     -1.143114   -0.482908    0.888375
  H     -1.143114   -0.482908   -0.888375
  H      1.116216    0.562176    0.901574
  H      1.116216    0.562176   -0.901574

----------------------------
CARTESIAN COORDINATES (A.U.)
----------------------------
  NO LB      ZA    FRAG     MASS         X           Y           Z
   0 C     6.0000    0    12.011   -1.447427    0.044115    0.000000
   1 C     6.0000    0    12.011    1.460318    0.060744    0.000000
   2 O     8.0000    0    15.999    2.197394   -2.401801    0.000000
   3 H     1.0000    0     1.008   -2.108626    1.997354    0.000000
   4 H     1.0000    0     1.008   -2.160172   -0.912564    1.678785
   5 H     1.0000    0     1.008   -2.160172   -0.912564   -1.678785
   6 H     1.0000    0     1.008    2.109343    1.062358    1.703728
   7 H     1.0000    0     1.008    2.109343    1.062358   -1.703728

--------------------------------
INTERNAL COORDINATES (ANGSTROEM)
--------------------------------
 C      0   0   0     0.000000000000     0.00000000     0.00000000
 C      1   0   0     1.538737661402     0.00000000     0.00000000
 O      2   1   0     1.360243619043   106.33554345     0.00000000
 H      1   2   3     1.091225018086   108.37403538   180.00000085
 H      1   2   3     1.089843149602   110.40944541    60.42825331
 H      1   2   3     1.089843149602   110.40944541   299.57174669
 H      2   1   3     1.100784281803   108.34586090   239.64216683
 H      2   1   3     1.100784281803   108.34586090   120.35783317

---------------------------
INTERNAL COORDINATES (A.U.)
---------------------------
 C      0   0   0     0.000000000000     0.00000000     0.00000000
 C      1   0   0     2.907792772000     0.00000000     0.00000000
 O      2   1   0     2.570487915405   106.33554345     0.00000000
 H      1   2   3     2.062116434666   108.37403538   180.00000085
 H      1   2   3     2.059505081678   110.40944541    60.42825331
 H      1   2   3     2.059505081678   110.40944541   299.57174669
 H      2   1   3     2.080180825133   108.34586090   239.64216683
 H      2   1   3     2.080180825133   108.34586090   120.35783317

---------------------
BASIS SET INFORMATION
---------------------
There are 3 groups of distinct atoms

 Group   1 Type C   : 8s4p1d contracted to 4s2p1d pattern {5111/31/1}
 Group   2 Type O   : 8s4p1d contracted to 4s2p1d pattern {5111/31/1}
 Group   3 Type H   : 4s contracted to 2s pattern {31}

Atom   0C    basis set group =>   1
Atom   1C    basis set group =>   1
Atom   2O    basis set group =>   2
Atom   3H    basis set group =>   3
Atom   4H    basis set group =>   3
Atom   5H    basis set group =>   3
Atom   6H    basis set group =>   3
Atom   7H    basis set group =>   3
---------------------------------
AUXILIARY/J BASIS SET INFORMATION
---------------------------------
There are 3 groups of distinct atoms

 Group   1 Type C   : 12s5p4d2f1g contracted to 6s4p3d1f1g pattern {711111/2111/211/2/1}
 Group   2 Type O   : 12s5p4d2f1g contracted to 6s4p3d1f1g pattern {711111/2111/211/2/1}
 Group   3 Type H   : 5s2p1d contracted to 3s1p1d pattern {311/2/1}

Atom   0C    basis set group =>   1
Atom   1C    basis set group =>   1
Atom   2O    basis set group =>   2
Atom   3H    basis set group =>   3
Atom   4H    basis set group =>   3
Atom   5H    basis set group =>   3
Atom   6H    basis set group =>   3
Atom   7H    basis set group =>   3


           ************************************************************
           *        Program running with 4 parallel MPI-processes     *
           *              working on a common directory               *
           ************************************************************
------------------------------------------------------------------------------
                           ORCA GTO INTEGRAL CALCULATION
                           -- RI-GTO INTEGRALS CHOSEN --
------------------------------------------------------------------------------
------------------------------------------------------------------------------
                   ___                                                        
                  /   \      - P O W E R E D   B Y -                         
                 /     \                                                     
                 |  |  |   _    _      __       _____    __    __             
                 |  |  |  | |  | |    /  \     |  _  \  |  |  /  |          
                  \  \/   | |  | |   /    \    | | | |  |  | /  /          
                 / \  \   | |__| |  /  /\  \   | |_| |  |  |/  /          
                |  |  |   |  __  | /  /__\  \  |    /   |      \           
                |  |  |   | |  | | |   __   |  |    \   |  |\   \          
                \     /   | |  | | |  |  |  |  | |\  \  |  | \   \       
                 \___/    |_|  |_| |__|  |__|  |_| \__\ |__|  \__/        
                                                                              
                      - O R C A' S   B I G   F R I E N D -                    
                                      &                                       
                       - I N T E G R A L  F E E D E R -                       
                                                                              
 v1 FN, 2020, v2 2021                                                         
------------------------------------------------------------------------------


Reading SHARK input file pbeh-3c.SHARKINP.tmp ... ok
----------------------
SHARK INTEGRAL PACKAGE
----------------------

Number of atoms                             ...      8
Number of basis functions                   ...     55
Number of shells                            ...     31
Maximum angular momentum                    ...      2
Integral batch strategy                     ... SHARK/LIBINT Hybrid
RI-J (if used) integral strategy            ... SPLIT-RIJ (Revised 2003 algorithm where possible)
Printlevel                                  ...      1
Contraction scheme used                     ... SEGMENTED contraction
Coulomb Range Separation                    ... NOT USED
Exchange Range Separation                   ... NOT USED
Finite Nucleus Model                        ... NOT USED
Auxiliary Coulomb fitting basis             ... AVAILABLE
   # of basis functions in Aux-J            ...    202
   # of shells in Aux-J                     ...     70
   Maximum angular momentum in Aux-J        ...      4
Auxiliary J/K fitting basis                 ... NOT available
Auxiliary Correlation fitting basis         ... NOT available
Auxiliary 'external' fitting basis          ... NOT available
Integral threshold                          ...     2.500000e-11
Primitive cut-off                           ...     2.500000e-12
Primitive pair pre-selection threshold      ...     2.500000e-12

Calculating pre-screening integrals         ... done (  0.0 sec) Dimension = 31
Organizing shell pair data                  ... done (  0.2 sec)
Shell pair information
Total number of shell pairs                 ...       496
Shell pairs after pre-screening             ...       489
Total number of primitive shell pairs       ...      1824
Primitive shell pairs kept                  ...      1469
          la=0 lb=0:    246 shell pairs
          la=1 lb=0:    132 shell pairs
          la=1 lb=1:     21 shell pairs
          la=2 lb=0:     66 shell pairs
          la=2 lb=1:     18 shell pairs
          la=2 lb=2:      6 shell pairs

Calculating one electron integrals          ... done (  0.0 sec)
Calculating RI/J V-Matrix + Cholesky decomp.... done (  0.7 sec)
Calculating Nuclear repulsion               ... done (  0.1 sec) ENN=     74.934433034699 Eh

SHARK setup successfully completed in   2.2 seconds

Maximum memory used throughout the entire GTOINT-calculation: 9.2 MB


           ************************************************************
           *        Program running with 4 parallel MPI-processes     *
           *              working on a common directory               *
           ************************************************************
-------------------------------------------------------------------------------
                                 ORCA SCF
-------------------------------------------------------------------------------

------------
SCF SETTINGS
------------
Hamiltonian:
 Density Functional     Method          .... DFT(GTOs)
 Exchange Functional    Exchange        .... PBE
   PBE kappa parameter   XKappa         ....  1.024500
   PBE mue parameter    XMuePBE         ....  0.123457
 Correlation Functional Correlation     .... PBE
   PBE beta parameter  CBetaPBE         ....  0.030000
 LDA part of GGA corr.  LDAOpt          .... PW91-LDA
 Gradients option       PostSCFGGA      .... off
 Hybrid DFT is turned on
   Fraction HF Exchange ScalHFX         ....  0.420000
   Scaling of DF-GGA-X  ScalDFX         ....  0.580000
   Scaling of DF-GGA-C  ScalDFC         ....  1.000000
   Scaling of DF-LDA-C  ScalLDAC        ....  1.000000
   Perturbative correction              ....  0.000000
   Density functional embedding theory  .... OFF
 RI-approximation to the Coulomb term is turned on
   Number of AuxJ basis functions       .... 202
   RIJ-ON(X) (HFX calculated with O(N)) .... on
   Number of AuxJ basis functions       .... 202
   RIJ-COSX (HFX calculated with COS-X)).... on


General Settings:
 Integral files         IntName         .... pbeh-3c
 Hartree-Fock type      HFTyp           .... UHF
 Total Charge           Charge          ....    0
 Multiplicity           Mult            ....    2
 Number of Electrons    NEL             ....   25
 Basis Dimension        Dim             ....   55
 Nuclear Repulsion      ENuc            ....     74.9344330347 Eh

Convergence Acceleration:
 DIIS                   CNVDIIS         .... on
   Start iteration      DIISMaxIt       ....    12
   Startup error        DIISStart       ....  0.200000
   # of expansion vecs  DIISMaxEq       ....     5
   Bias factor          DIISBfac        ....   1.050
   Max. coefficient     DIISMaxC        ....  10.000
 Trust-Rad. Augm. Hess. CNVTRAH         .... auto
   Auto Start mean grad. ratio tolernc. ....  1.125000
   Auto Start start iteration           ....    20
   Auto Start num. interpolation iter.  ....    10
   Max. Number of Micro iterations      ....    16
   Max. Number of Macro iterations      .... Maxiter - #DIIS iter
   Number of Davidson start vectors     ....     2
   Converg. threshold I  (grad. norm)   ....   1.000e-05
   Converg. threshold II (energy diff.) ....   1.000e-08
   Grad. Scal. Fac. for Micro threshold ....   0.100
   Minimum threshold for Micro iter.    ....   0.010
   NR start threshold (gradient norm)   ....   0.001
   Initial trust radius                 ....   0.400
   Minimum AH scaling param. (alpha)    ....   1.000
   Maximum AH scaling param. (alpha)    .... 1000.000
   Orbital update algorithm             .... Taylor
   White noise on init. David. guess    .... on
   Maximum white noise                  ....   0.010
   Quad. conv. algorithm                .... NR
   COSX micro iterations for RIJONX calc.... off
 SOSCF                  CNVSOSCF        .... off
 Level Shifting         CNVShift        .... on
   Level shift para.    LevelShift      ....    0.2500
   Turn off err/grad.   ShiftErr        ....    0.0010
 Zerner damping         CNVZerner       .... off
 Static damping         CNVDamp         .... on
   Fraction old density DampFac         ....    0.7000
   Max. Damping (<1)    DampMax         ....    0.9800
   Min. Damping (>=0)   DampMin         ....    0.0000
   Turn off err/grad.   DampErr         ....    0.1000
 Fernandez-Rico         CNVRico         .... off

SCF Procedure:
 Maximum # iterations   MaxIter         ....   125
 SCF integral mode      SCFMode         .... Direct
   Integral package                     .... SHARK and LIBINT hybrid scheme
 Reset frequency        DirectResetFreq ....    20
 Integral Threshold     Thresh          ....  2.500e-11 Eh
 Primitive CutOff       TCut            ....  2.500e-12 Eh

Convergence Tolerance:
 Convergence Check Mode ConvCheckMode   .... Total+1el-Energy
 Convergence forced     ConvForced      .... 0
 Energy Change          TolE            ....  1.000e-08 Eh
 1-El. energy change                    ....  1.000e-05 Eh
 DIIS Error             TolErr          ....  5.000e-07


Diagonalization of the overlap matrix:
Smallest eigenvalue                        ... 9.008e-03
Time for diagonalization                   ...    0.001 sec
Threshold for overlap eigenvalues          ... 1.000e-08
Number of eigenvalues below threshold      ... 0
Time for construction of square roots      ...    0.357 sec
Total time needed                          ...    0.358 sec

--------------------------------
INITIAL GUESS: MINIMAL BASIS EHT
--------------------------------
The minimal basis has 20 functions
EHT matrix was diagonalized
Basis set overlap was calculated now projecting the orbitals
Using GuessMode=FMatrix for the initial guess
C*T matrix was formed
Effective Fockian was calculated
Effective Fockian was diagonalized
Initial density was built
                      ------------------
                      INITIAL GUESS DONE
                      ------------------
-------------------
DFT GRID GENERATION
-------------------

General Integration Accuracy     IntAcc      ... 4.959
Radial Grid Type                 RadialGrid  ... OptM3 with GC (2021)
Angular Grid (max. ang.)         AngularGrid ... 6 (Lebedev-590)
Angular grid pruning method      GridPruning ... 4 (adaptive)
Weight generation scheme         WeightScheme... Becke
Basis function cutoff            BFCut       ... 1.0000e-11
Integration weight cutoff        WCut        ... 1.0000e-14
Angular grids for H and He will be reduced by one unit
Partially contracted basis set               ... off
Rotationally invariant grid construction     ... off

Total number of grid points                  ...    87745
Total number of batches                      ...     1376
Average number of points per batch           ...       63
Average number of grid points per atom       ...    10968
Time for grid setup =    1.460 sec

--------------------
COSX GRID GENERATION
--------------------

GRIDX 1
-------
General Integration Accuracy     IntAcc      ... 4.020
Radial Grid Type                 RadialGrid  ... OptM3 with GC (2021)
Angular Grid (max. ang.)         AngularGrid ... 2 (Lebedev-110)
Angular grid pruning method      GridPruning ... 4 (adaptive)
Weight generation scheme         WeightScheme... Becke
Basis function cutoff            BFCut       ... 1.0000e-11
Integration weight cutoff        WCut        ... 1.0000e-14
Angular grids for H and He will be reduced by one unit
Partially contracted basis set               ... on
Rotationally invariant grid construction     ... off

Total number of grid points                  ...     9480
Total number of batches                      ...      152
Average number of points per batch           ...       62
Average number of grid points per atom       ...     1185
UseSFitting                                  ... on

GRIDX 2
-------
General Integration Accuracy     IntAcc      ... 4.338
Radial Grid Type                 RadialGrid  ... OptM3 with GC (2021)
Angular Grid (max. ang.)         AngularGrid ... 3 (Lebedev-194)
Angular grid pruning method      GridPruning ... 4 (adaptive)
Weight generation scheme         WeightScheme... Becke
Basis function cutoff            BFCut       ... 1.0000e-11
Integration weight cutoff        WCut        ... 1.0000e-14
Angular grids for H and He will be reduced by one unit
Partially contracted basis set               ... on
Rotationally invariant grid construction     ... off

Total number of grid points                  ...    20825
Total number of batches                      ...      329
Average number of points per batch           ...       63
Average number of grid points per atom       ...     2603
UseSFitting                                  ... on

GRIDX 3
-------
General Integration Accuracy     IntAcc      ... 4.871
Radial Grid Type                 RadialGrid  ... OptM3 with GC (2021)
Angular Grid (max. ang.)         AngularGrid ... 4 (Lebedev-302)
Angular grid pruning method      GridPruning ... 4 (adaptive)
Weight generation scheme         WeightScheme... Becke
Basis function cutoff            BFCut       ... 1.0000e-11
Integration weight cutoff        WCut        ... 1.0000e-14
Angular grids for H and He will be reduced by one unit
Partially contracted basis set               ... on
Rotationally invariant grid construction     ... off

Total number of grid points                  ...    41328
Total number of batches                      ...      651
Average number of points per batch           ...       63
Average number of grid points per atom       ...     5166
UseSFitting                                  ... on

Time for X-Grid setup             =    3.914 sec

--------------
SCF ITERATIONS
--------------
ITER       Energy         Delta-E        Max-DP      RMS-DP      [F,P]     Damp
               ***  Starting incremental Fock matrix formation  ***
  0   -153.4783851161   0.000000000000 0.09908435  0.00571890  0.2790805 0.7000
  1   -153.7021142535  -0.223729137400 0.05367228  0.00294676  0.1408205 0.7000
                               ***Turning on DIIS***
  2   -153.8067056527  -0.104591399231 0.02363273  0.00132857  0.1007395 0.7000
  3   -153.8761282868  -0.069422634088 0.05025485  0.00287020  0.0714560 0.0000
  4   -154.0453044667  -0.169176179840 0.01385153  0.00063249  0.0187560 0.0000
  5   -154.0471289223  -0.001824455579 0.00531519  0.00029298  0.0079047 0.0000
  6   -154.0475936334  -0.000464711168 0.00295096  0.00018182  0.0038787 0.0000
  7   -154.0477409050  -0.000147271572 0.00165713  0.00009144  0.0019626 0.0000
  8   -154.0477846431  -0.000043738095 0.00150983  0.00007380  0.0009502 0.0000
               *** Restarting incremental Fock matrix formation ***
                                   *** Resetting DIIS ***
  9   -154.0478147280  -0.000030084910 0.00045610  0.00001800  0.0004196 0.0000
 10   -154.0478161759  -0.000001447857 0.00016414  0.00000847  0.0002549 0.0000
 11   -154.0478166959  -0.000000520045 0.00041441  0.00001284  0.0001959 0.0000
 12   -154.0478171467  -0.000000450769 0.00007693  0.00000273  0.0000437 0.0000
 13   -154.0478171692  -0.000000022546 0.00002590  0.00000102  0.0000190 0.0000
 14   -154.0478171730  -0.000000003760 0.00000955  0.00000037  0.0000063 0.0000
 15   -154.0478171732  -0.000000000200 0.00000232  0.00000014  0.0000022 0.0000
 16   -154.0478171727   0.000000000483 0.00000151  0.00000007  0.0000012 0.0000
                 **** Energy Check signals convergence ****

               *****************************************************
               *                     SUCCESS                       *
               *           SCF CONVERGED AFTER  17 CYCLES          *
               *****************************************************

Old exchange energy                            =     -8.547325955 Eh
New exchange energy                            =     -8.547324752 Eh
Exchange energy change after final integration =      0.000001204 Eh
Total energy after final integration           =   -154.047815969 Eh
Final COS-X integration done in                =     0.693 sec

----------------
TOTAL SCF ENERGY
----------------

Total Energy       :         -154.04781597 Eh           -4191.85418 eV

Components:
Nuclear Repulsion  :           74.93443303 Eh            2039.06959 eV
Electronic Energy  :         -228.98224900 Eh           -6230.92377 eV
One Electron Energy:         -357.14087409 Eh           -9718.29725 eV
Two Electron Energy:          128.15862509 Eh            3487.37348 eV
Max COSX asymmetry :            0.00000049 Eh               0.00001 eV

Virial components:
Potential Energy   :         -307.05988975 Eh           -8355.52439 eV
Kinetic Energy     :          153.01207378 Eh            4163.67020 eV
Virial Ratio       :            2.00676902


DFT components:
N(Alpha)           :       12.999999636753 electrons
N(Beta)            :       11.999999683596 electrons
N(Total)           :       24.999999320349 electrons
E(X)               :      -11.346808366010 Eh       
E(C)               :       -1.065719454463 Eh       
E(XC)              :      -12.412527820472 Eh       
DFET-embed. en.    :        0.000000000000 Eh       

---------------
SCF CONVERGENCE
---------------

  Last Energy change         ...    3.1326e-10  Tolerance :   1.0000e-08
  Last MAX-Density change    ...    0.0000e+00  Tolerance :   1.0000e-07
  Last RMS-Density change    ...    0.0000e+00  Tolerance :   5.0000e-09
  Last DIIS Error            ...    4.5122e-07  Tolerance :   5.0000e-07

             **** THE GBW FILE WAS UPDATED (pbeh-3c.gbw) ****
             **** DENSITY pbeh-3c.scfp WAS UPDATED ****
             **** ENERGY FILE WAS UPDATED (pbeh-3c.en.tmp) ****
----------------------
UHF SPIN CONTAMINATION
----------------------

Warning: in a DFT calculation there is little theoretical justification to 
         calculate <S**2> as in Hartree-Fock theory. We will do it anyways
         but you should keep in mind that the values have only limited relevance

Expectation value of <S**2>     :     0.754105
Ideal value S*(S+1) for S=0.5   :     0.750000
Deviation                       :     0.004105

             **** THE GBW FILE WAS UPDATED (pbeh-3c.gbw) ****
             **** DENSITY pbeh-3c.scfp WAS UPDATED ****
----------------
ORBITAL ENERGIES
----------------
                 SPIN UP ORBITALS
  NO   OCC          E(Eh)            E(eV) 
   0   1.0000     -19.534657      -531.5651 
   1   1.0000     -10.491180      -285.4795 
   2   1.0000     -10.450156      -284.3632 
   3   1.0000      -1.142690       -31.0942 
   4   1.0000      -0.839947       -22.8561 
   5   1.0000      -0.689072       -18.7506 
   6   1.0000      -0.549024       -14.9397 
   7   1.0000      -0.543238       -14.7823 
   8   1.0000      -0.496853       -13.5201 
   9   1.0000      -0.447935       -12.1889 
  10   1.0000      -0.442491       -12.0408 
  11   1.0000      -0.378861       -10.3093 
  12   1.0000      -0.339194        -9.2299 
  13   0.0000       0.148491         4.0406 
  14   0.0000       0.177603         4.8328 
  15   0.0000       0.202779         5.5179 
  16   0.0000       0.203999         5.5511 
  17   0.0000       0.235968         6.4210 
  18   0.0000       0.237863         6.4726 
  19   0.0000       0.244225         6.6457 
  20   0.0000       0.483974        13.1696 
  21   0.0000       0.520270        14.1573 
  22   0.0000       0.550845        14.9892 
  23   0.0000       0.588859        16.0237 
  24   0.0000       0.608326        16.5534 
  25   0.0000       0.619077        16.8459 
  26   0.0000       0.920526        25.0488 
  27   0.0000       0.971298        26.4304 
  28   0.0000       0.971734        26.4422 
  29   0.0000       1.004931        27.3456 
  30   0.0000       1.030350        28.0373 
  31   0.0000       1.052589        28.6424 
  32   0.0000       1.059934        28.8423 
  33   0.0000       1.088627        29.6230 
  34   0.0000       1.123478        30.5714 
  35   0.0000       1.341242        36.4971 
  36   0.0000       1.474768        40.1305 
  37   0.0000       1.489836        40.5405 
  38   0.0000       1.781911        48.4883 
  39   0.0000       1.796210        48.8774 
  40   0.0000       1.884526        51.2805 
  41   0.0000       1.936116        52.6844 
  42   0.0000       1.946585        52.9693 
  43   0.0000       2.008360        54.6503 
  44   0.0000       2.181092        59.3505 
  45   0.0000       2.213916        60.2437 
  46   0.0000       2.323920        63.2371 
  47   0.0000       2.376672        64.6725 
  48   0.0000       2.491426        67.7951 
  49   0.0000       2.534729        68.9735 
  50   0.0000       2.667777        72.5939 
  51   0.0000       2.860558        77.8397 
  52   0.0000      13.648551       371.3960 
  53   0.0000      13.928581       379.0160 
  54   0.0000      25.423315       691.8036 

                 SPIN DOWN ORBITALS
  NO   OCC          E(Eh)            E(eV) 
   0   1.0000     -19.508042      -530.8408 
   1   1.0000     -10.492178      -285.5067 
   2   1.0000     -10.447519      -284.2915 
   3   1.0000      -1.074990       -29.2520 
   4   1.0000      -0.823033       -22.3959 
   5   1.0000      -0.676881       -18.4189 
   6   1.0000      -0.544054       -14.8045 
   7   1.0000      -0.504833       -13.7372 
   8   1.0000      -0.450129       -12.2486 
   9   1.0000      -0.437760       -11.9121 
  10   1.0000      -0.437324       -11.9002 
  11   1.0000      -0.316044        -8.6000 
  12   0.0000      -0.076345        -2.0774 
  13   0.0000       0.151985         4.1357 
  14   0.0000       0.181547         4.9401 
  15   0.0000       0.204459         5.5636 
  16   0.0000       0.207894         5.6571 
  17   0.0000       0.237437         6.4610 
  18   0.0000       0.248729         6.7682 
  19   0.0000       0.254790         6.9332 
  20   0.0000       0.487677        13.2704 
  21   0.0000       0.521542        14.1919 
  22   0.0000       0.564618        15.3640 
  23   0.0000       0.599328        16.3085 
  24   0.0000       0.610155        16.6032 
  25   0.0000       0.627427        17.0732 
  26   0.0000       0.929135        25.2830 
  27   0.0000       0.973294        26.4847 
  28   0.0000       0.982977        26.7482 
  29   0.0000       1.009353        27.4659 
  30   0.0000       1.032183        28.0871 
  31   0.0000       1.061584        28.8872 
  32   0.0000       1.063971        28.9521 
  33   0.0000       1.138888        30.9907 
  34   0.0000       1.175888        31.9975 
  35   0.0000       1.353067        36.8188 
  36   0.0000       1.489558        40.5329 
  37   0.0000       1.493334        40.6357 
  38   0.0000       1.827012        49.7155 
  39   0.0000       1.849002        50.3139 
  40   0.0000       1.912305        52.0365 
  41   0.0000       1.945309        52.9345 
  42   0.0000       1.967755        53.5453 
  43   0.0000       2.034056        55.3495 
  44   0.0000       2.201125        59.8957 
  45   0.0000       2.218761        60.3756 
  46   0.0000       2.332265        63.4642 
  47   0.0000       2.382047        64.8188 
  48   0.0000       2.506478        68.2047 
  49   0.0000       2.538789        69.0840 
  50   0.0000       2.683994        73.0352 
  51   0.0000       2.880296        78.3768 
  52   0.0000      13.650314       371.4439 
  53   0.0000      13.929180       379.0322 
  54   0.0000      25.459131       692.7782 

                    ********************************
                    * MULLIKEN POPULATION ANALYSIS *
                    ********************************

--------------------------------------------
MULLIKEN ATOMIC CHARGES AND SPIN POPULATIONS
--------------------------------------------
   0 C :   -0.672818    0.088282
   1 C :   -0.146077   -0.069393
   2 O :   -0.263698    0.934668
   3 H :    0.228128    0.018045
   4 H :    0.239042   -0.004266
   5 H :    0.239042   -0.004266
   6 H :    0.188191    0.018465
   7 H :    0.188191    0.018465
Sum of atomic charges         :   -0.0000000
Sum of atomic spin populations:    1.0000000

-----------------------------------------------------
MULLIKEN REDUCED ORBITAL CHARGES AND SPIN POPULATIONS
-----------------------------------------------------
CHARGE
  0 C s       :     3.397323  s :     3.397323
      pz      :     1.169024  p :     3.239414
      px      :     0.925061
      py      :     1.145329
      dz2     :     0.007780  d :     0.036081
      dxz     :     0.006995
      dyz     :     0.006995
      dx2y2   :     0.009164
      dxy     :     0.005147
  1 C s       :     3.258631  s :     3.258631
      pz      :     1.102298  p :     2.814062
      px      :     0.931687
      py      :     0.780076
      dz2     :     0.010923  d :     0.073384
      dxz     :     0.006873
      dyz     :     0.025608
      dx2y2   :     0.017029
      dxy     :     0.012952
  2 O s       :     3.876382  s :     3.876382
      pz      :     1.900087  p :     4.365428
      px      :     1.067249
      py      :     1.398093
      dz2     :     0.002975  d :     0.021887
      dxz     :     0.000363
      dyz     :     0.004400
      dx2y2   :     0.008022
      dxy     :     0.006126
  3 H s       :     0.771872  s :     0.771872
  4 H s       :     0.760958  s :     0.760958
  5 H s       :     0.760958  s :     0.760958
  6 H s       :     0.811809  s :     0.811809
  7 H s       :     0.811809  s :     0.811809

SPIN
  0 C s       :     0.014406  s :     0.014406
      pz      :     0.004899  p :     0.073466
      px      :     0.070897
      py      :    -0.002330
      dz2     :     0.000026  d :     0.000410
      dxz     :    -0.000203
      dyz     :     0.000011
      dx2y2   :     0.000604
      dxy     :    -0.000028
  1 C s       :    -0.015233  s :    -0.015233
      pz      :    -0.010131  p :    -0.062487
      px      :    -0.028028
      py      :    -0.024327
      dz2     :     0.000535  d :     0.008326
      dxz     :     0.000069
      dyz     :    -0.000533
      dx2y2   :     0.004883
      dxy     :     0.003372
  2 O s       :     0.019178  s :     0.019178
      pz      :     0.007263  p :     0.915753
      px      :     0.839456
      py      :     0.069034
      dz2     :     0.000086  d :    -0.000263
      dxz     :     0.000004
      dyz     :    -0.000003
      dx2y2   :    -0.000145
      dxy     :    -0.000206
  3 H s       :     0.018045  s :     0.018045
  4 H s       :    -0.004266  s :    -0.004266
  5 H s       :    -0.004266  s :    -0.004266
  6 H s       :     0.018465  s :     0.018465
  7 H s       :     0.018465  s :     0.018465


                     *******************************
                     * LOEWDIN POPULATION ANALYSIS *
                     *******************************

-------------------------------------------
LOEWDIN ATOMIC CHARGES AND SPIN POPULATIONS
-------------------------------------------
   0 C :   -0.361212    0.082115
   1 C :   -0.131575   -0.019596
   2 O :   -0.130796    0.904535
   3 H :    0.138907    0.010455
   4 H :    0.137917   -0.002987
   5 H :    0.137917   -0.002987
   6 H :    0.104421    0.014232
   7 H :    0.104421    0.014232

----------------------------------------------------
LOEWDIN REDUCED ORBITAL CHARGES AND SPIN POPULATIONS
----------------------------------------------------
CHARGE
  0 C s       :     2.966421  s :     2.966421
      pz      :     1.151810  p :     3.328738
      px      :     1.039358
      py      :     1.137570
      dz2     :     0.013567  d :     0.066053
      dxz     :     0.013101
      dyz     :     0.011270
      dx2y2   :     0.018072
      dxy     :     0.010043
  1 C s       :     2.915981  s :     2.915981
      pz      :     1.101267  p :     3.058737
      px      :     1.038635
      py      :     0.918835
      dz2     :     0.021934  d :     0.156857
      dxz     :     0.012481
      dyz     :     0.052676
      dx2y2   :     0.041659
      dxy     :     0.028107
  2 O s       :     3.647170  s :     3.647170
      pz      :     1.909943  p :     4.441764
      px      :     1.071533
      py      :     1.460288
      dz2     :     0.005206  d :     0.041862
      dxz     :     0.000605
      dyz     :     0.009369
      dx2y2   :     0.014586
      dxy     :     0.012096
  3 H s       :     0.861093  s :     0.861093
  4 H s       :     0.862083  s :     0.862083
  5 H s       :     0.862083  s :     0.862083
  6 H s       :     0.895579  s :     0.895579
  7 H s       :     0.895579  s :     0.895579

SPIN
  0 C s       :     0.015993  s :     0.015993
      pz      :     0.003230  p :     0.066142
      px      :     0.061907
      py      :     0.001005
      dz2     :    -0.000075  d :    -0.000020
      dxz     :    -0.000269
      dyz     :    -0.000076
      dx2y2   :     0.000404
      dxy     :    -0.000004
  1 C s       :    -0.006644  s :    -0.006644
      pz      :    -0.004756  p :    -0.034177
      px      :    -0.010954
      py      :    -0.018467
      dz2     :     0.001586  d :     0.021225
      dxz     :     0.000167
      dyz     :    -0.000856
      dx2y2   :     0.012338
      dxy     :     0.007990
  2 O s       :     0.012856  s :     0.012856
      pz      :     0.004684  p :     0.892320
      px      :     0.822743
      py      :     0.064893
      dz2     :    -0.000248  d :    -0.000641
      dxz     :    -0.000005
      dyz     :    -0.000070
      dx2y2   :    -0.000021
      dxy     :    -0.000297
  3 H s       :     0.010455  s :     0.010455
  4 H s       :    -0.002987  s :    -0.002987
  5 H s       :    -0.002987  s :    -0.002987
  6 H s       :     0.014232  s :     0.014232
  7 H s       :     0.014232  s :     0.014232


                      *****************************
                      * MAYER POPULATION ANALYSIS *
                      *****************************

  NA   - Mulliken gross atomic population
  ZA   - Total nuclear charge
  QA   - Mulliken gross atomic charge
  VA   - Mayer's total valence
  BVA  - Mayer's bonded valence
  FA   - Mayer's free valence

  ATOM       NA         ZA         QA         VA         BVA        FA
  0 C      6.6728     6.0000    -0.6728     3.7208     3.7125     0.0082
  1 C      6.1461     6.0000    -0.1461     3.8149     3.8113     0.0036
  2 O      8.2637     8.0000    -0.2637     2.0367     1.2326     0.8041
  3 H      0.7719     1.0000     0.2281     0.9090     0.9087     0.0003
  4 H      0.7610     1.0000     0.2390     0.9048     0.9048     0.0000
  5 H      0.7610     1.0000     0.2390     0.9048     0.9048     0.0000
  6 H      0.8118     1.0000     0.1882     0.9017     0.9014     0.0003
  7 H      0.8118     1.0000     0.1882     0.9017     0.9014     0.0003

  Mayer bond orders larger than 0.100000
B(  0-C ,  1-C ) :   0.9355 B(  0-C ,  3-H ) :   0.9174 B(  0-C ,  4-H ) :   0.9153 
B(  0-C ,  5-H ) :   0.9153 B(  1-C ,  2-O ) :   1.1263 B(  1-C ,  6-H ) :   0.8881 
B(  1-C ,  7-H ) :   0.8881 

-------
TIMINGS
-------

Total SCF time: 0 days 0 hours 2 min 32 sec 

Total time                  ....     152.568 sec
Sum of individual times     ....     140.663 sec  ( 92.2%)

Fock matrix formation       ....     111.653 sec  ( 73.2%)
  Split-RI-J                ....      11.057 sec  (  9.9% of F)
  Chain of spheres X        ....      10.944 sec  (  9.8% of F)
  XC integration            ....      36.787 sec  ( 32.9% of F)
    Basis function eval.    ....       1.529 sec  (  4.2% of XC)
    Density eval.           ....       1.598 sec  (  4.3% of XC)
    XC-Functional eval.     ....       1.747 sec  (  4.7% of XC)
    XC-Potential eval.      ....       0.701 sec  (  1.9% of XC)
Diagonalization             ....       3.041 sec  (  2.0%)
Density matrix formation    ....       0.078 sec  (  0.1%)
Population analysis         ....       2.355 sec  (  1.5%)
Initial guess               ....       0.004 sec  (  0.0%)
Orbital Transformation      ....       0.000 sec  (  0.0%)
Orbital Orthonormalization  ....       0.000 sec  (  0.0%)
DIIS solution               ....      18.158 sec  ( 11.9%)
Grid generation             ....       5.374 sec  (  3.5%)

Maximum memory used throughout the entire SCF-calculation: 46.5 MB


-------------------------------------------------------------------------------
                          DFT DISPERSION CORRECTION                            
                                                                               
                              DFTD3 V3.1  Rev 1                                
                          USING Becke-Johnson damping                          
-------------------------------------------------------------------------------
The PBEh-3c composite method is recognized
Using three-body term ABC
Active option DFTDOPT                   ...         4   

molecular C6(AA) [au] = 434.604018 


            DFT-D V3
 parameters
 s6 scaling factor         :     1.0000 
 a1 scaling factor         :     0.4860 
 s8 scaling factor         :     0.0000 
 a2 scaling factor         :     4.5000 
 Damping factor alpha9(ATM):    16.0000 
 ad hoc parameters k1-k3   :    16.0000     1.3333    -4.0000 

 Edisp/kcal,au: -1.329382454775  -0.002118505565 
 E6   /kcal   :  -1.330507118 
 E8   /kcal   :  -0.000000000 
 E6(ABC)      :   0.001124663 
 % E8         :   0.000000000 
 % E6(ABC)    :  -0.084600445 

-------------------------   ----------------
Dispersion correction           -0.002118506
-------------------------   ----------------

------------------   -----------------
gCP correction             0.015681732
------------------   -----------------

-------------------------   --------------------
FINAL SINGLE POINT ENERGY      -154.034252742114
-------------------------   --------------------


                            ***************************************
                            *     ORCA property calculations      *
                            ***************************************

                                    ---------------------
                                    Active property flags
                                    ---------------------
   (+) Dipole Moment


------------------------------------------------------------------------------
                       ORCA ELECTRIC PROPERTIES CALCULATION
------------------------------------------------------------------------------

Dipole Moment Calculation                       ... on
Quadrupole Moment Calculation                   ... off
Polarizability Calculation                      ... off
GBWName                                         ... pbeh-3c.gbw
Electron density                                ... pbeh-3c.scfp
The origin for moment calculation is the CENTER OF MASS  = ( 0.734182, -0.773432  0.000000)

-------------
DIPOLE MOMENT
-------------
                                X             Y             Z
Electronic contribution:      2.51432      -2.34963       0.00000
Nuclear contribution   :     -2.90834       3.04750       0.00000
                        -----------------------------------------
Total Dipole Moment    :     -0.39401       0.69787       0.00000
                        -----------------------------------------
Magnitude (a.u.)       :      0.80142
Magnitude (Debye)      :      2.03704



--------------------
Rotational spectrum 
--------------------
 
Rotational constants in cm-1:     1.179256     0.350003     0.301029 
Rotational constants in MHz : 35353.218107 10492.817809  9024.629563 

 Dipole components along the rotational axes: 
x,y,z [a.u.] :     0.703608     0.383674     0.000000 
x,y,z [Debye]:     1.788430     0.975223     0.000000 

 

Timings for individual modules:

Sum of individual times         ...      156.391 sec (=   2.607 min)
GTO integral calculation        ...        3.075 sec (=   0.051 min)   2.0 %
SCF iterations                  ...      153.316 sec (=   2.555 min)  98.0 %
                             ****ORCA TERMINATED NORMALLY****
TOTAL RUN TIME: 0 days 0 hours 2 minutes 50 seconds 76 msec
