
                                 *****************
                                 * O   R   C   A *
                                 *****************

                                            #,                                       
                                            ###                                      
                                            ####                                     
                                            #####                                    
                                            ######                                   
                                           ########,                                 
                                     ,,################,,,,,                         
                               ,,#################################,,                 
                          ,,##########################################,,             
                       ,#########################################, ''#####,          
                    ,#############################################,,   '####,        
                  ,##################################################,,,,####,       
                ,###########''''           ''''###############################       
              ,#####''   ,,,,##########,,,,          '''####'''          '####       
            ,##' ,,,,###########################,,,                        '##       
           ' ,,###''''                  '''############,,,                           
         ,,##''                                '''############,,,,        ,,,,,,###''
      ,#''                                            '''#######################'''  
     '                                                          ''''####''''         
             ,#######,   #######,   ,#######,      ##                                
            ,#'     '#,  ##    ##  ,#'     '#,    #''#        ######   ,####,        
            ##       ##  ##   ,#'  ##            #'  '#       #        #'  '#        
            ##       ##  #######   ##           ,######,      #####,   #    #        
            '#,     ,#'  ##    ##  '#,     ,#' ,#      #,         ##   #,  ,#        
             '#######'   ##     ##  '#######'  #'      '#     #####' # '####'        



                  #######################################################
                  #                        -***-                        #
                  #          Department of theory and spectroscopy      #
                  #    Directorship and core code : Frank Neese         #
                  #        Max Planck Institute fuer Kohlenforschung    #
                  #                Kaiser Wilhelm Platz 1               #
                  #                 D-45470 Muelheim/Ruhr               #
                  #                      Germany                        #
                  #                                                     #
                  #                  All rights reserved                #
                  #                        -***-                        #
                  #######################################################


                         Program Version 5.0.3 -  RELEASE  -


 With contributions from (in alphabetic order):
   Daniel Aravena         : Magnetic Suceptibility
   Michael Atanasov       : Ab Initio Ligand Field Theory (pilot matlab implementation)
   Alexander A. Auer      : GIAO ZORA, VPT2 properties, NMR spectrum
   Ute Becker             : Parallelization
   Giovanni Bistoni       : ED, misc. LED, open-shell LED, HFLD
   Martin Brehm           : Molecular dynamics
   Dmytro Bykov           : SCF Hessian
   Vijay G. Chilkuri      : MRCI spin determinant printing, contributions to CSF-ICE
   Dipayan Datta          : RHF DLPNO-CCSD density
   Achintya Kumar Dutta   : EOM-CC, STEOM-CC
   Dmitry Ganyushin       : Spin-Orbit,Spin-Spin,Magnetic field MRCI
   Miquel Garcia          : C-PCM and meta-GGA Hessian, CC/C-PCM, Gaussian charge scheme
   Yang Guo               : DLPNO-NEVPT2, F12-NEVPT2, CIM, IAO-localization
   Andreas Hansen         : Spin unrestricted coupled pair/coupled cluster methods
   Benjamin Helmich-Paris : MC-RPA, TRAH-SCF, COSX integrals
   Lee Huntington         : MR-EOM, pCC
   Robert Izsak           : Overlap fitted RIJCOSX, COSX-SCS-MP3, EOM
   Marcus Kettner         : VPT2
   Christian Kollmar      : KDIIS, OOCD, Brueckner-CCSD(T), CCSD density, CASPT2, CASPT2-K
   Simone Kossmann        : Meta GGA functionals, TD-DFT gradient, OOMP2, MP2 Hessian
   Martin Krupicka        : Initial AUTO-CI
   Lucas Lang             : DCDCAS
   Marvin Lechner         : AUTO-CI (C++ implementation), FIC-MRCC
   Dagmar Lenk            : GEPOL surface, SMD
   Dimitrios Liakos       : Extrapolation schemes; Compound Job, initial MDCI parallelization
   Dimitrios Manganas     : Further ROCIS development; embedding schemes
   Dimitrios Pantazis     : SARC Basis sets
   Anastasios Papadopoulos: AUTO-CI, single reference methods and gradients
   Taras Petrenko         : DFT Hessian,TD-DFT gradient, ASA, ECA, R-Raman, ABS, FL, XAS/XES, NRVS
   Peter Pinski           : DLPNO-MP2, DLPNO-MP2 Gradient
   Christoph Reimann      : Effective Core Potentials
   Marius Retegan         : Local ZFS, SOC
   Christoph Riplinger    : Optimizer, TS searches, QM/MM, DLPNO-CCSD(T), (RO)-DLPNO pert. Triples
   Tobias Risthaus        : Range-separated hybrids, TD-DFT gradient, RPA, STAB
   Michael Roemelt        : Original ROCIS implementation
   Masaaki Saitow         : Open-shell DLPNO-CCSD energy and density
   Barbara Sandhoefer     : DKH picture change effects
   Avijit Sen             : IP-ROCIS
   Kantharuban Sivalingam : CASSCF convergence, NEVPT2, FIC-MRCI
   Bernardo de Souza      : ESD, SOC TD-DFT
   Georgi Stoychev        : AutoAux, RI-MP2 NMR, DLPNO-MP2 response
   Willem Van den Heuvel  : Paramagnetic NMR
   Boris Wezisla          : Elementary symmetry handling
   Frank Wennmohs         : Technical directorship


 We gratefully acknowledge several colleagues who have allowed us to
 interface, adapt or use parts of their codes:
   Stefan Grimme, W. Hujo, H. Kruse, P. Pracht,  : VdW corrections, initial TS optimization,
                  C. Bannwarth, S. Ehlert          DFT functionals, gCP, sTDA/sTD-DF
   Ed Valeev, F. Pavosevic, A. Kumar             : LibInt (2-el integral package), F12 methods
   Garnet Chan, S. Sharma, J. Yang, R. Olivares  : DMRG
   Ulf Ekstrom                                   : XCFun DFT Library
   Mihaly Kallay                                 : mrcc  (arbitrary order and MRCC methods)
   Jiri Pittner, Ondrej Demel                    : Mk-CCSD
   Frank Weinhold                                : gennbo (NPA and NBO analysis)
   Christopher J. Cramer and Donald G. Truhlar   : smd solvation model
   Lars Goerigk                                  : TD-DFT with DH, B97 family of functionals
   V. Asgeirsson, H. Jonsson                     : NEB implementation
   FAccTs GmbH                                   : IRC, NEB, NEB-TS, DLPNO-Multilevel, CI-OPT
                                                   MM, QMMM, 2- and 3-layer-ONIOM, Crystal-QMMM,
                                                   LR-CPCM, SF, NACMEs, symmetry and pop. for TD-DFT,
                                                   nearIR, NL-DFT gradient (VV10), updates on ESD,
                                                   ML-optimized integration grids
   S Lehtola, MJT Oliveira, MAL Marques          : LibXC Library
   Liviu Ungur et al                             : ANISO software


 Your calculation uses the libint2 library for the computation of 2-el integrals
 For citations please refer to: http://libint.valeyev.net

 Your ORCA version has been built with support for libXC version: 5.1.0
 For citations please refer to: https://tddft.org/programs/libxc/

 This ORCA versions uses:
   CBLAS   interface :  Fast vector & matrix operations
   LAPACKE interface :  Fast linear algebra routines
   SCALAPACK package :  Parallel linear algebra routines
   Shared memory     :  Shared parallel matrices
   BLAS/LAPACK       :  OpenBLAS 0.3.15  USE64BITINT DYNAMIC_ARCH NO_AFFINITY Haswell SINGLE_THREADED
        Core in use  :  Haswell
   Copyright (c) 2011-2014, The OpenBLAS Project




***************************************
The coordinates will be read from file: 20.xyz
***************************************


Your calculation utilizes the geometrical counterpoise correction gCP
Please cite in your paper:
H.Kruse, S. Grimme J.Chem.Phys., 136, (2012), 154101 
   

Your calculation utilizes the atom-pairwise dispersion correction
with the Becke-Johnson damping scheme (D3BJ)
Cite in your paper:
S.Grimme, S.Ehrlich, L.Goerigk, J Comput Chem, (2011), 32, 1456–1465 
S.Grimme, J.Antony, S.Ehrlich and H.Krieg, J.Chem.Phys., 132, (2010), 154104 
   

Your calculation employs the composite approach PBEh-3c.
Please cite in your paper:
S. Grimme, J. G. Brandenburg, C. Bannwarth, A. Hansen J.Chem.Phys., 143, (2015), 054107 
   

================================================================================

----- Orbital basis set information -----
Your calculation utilizes the basis: def2-mSVP

----- AuxJ basis set information -----
Your calculation utilizes the auxiliary basis: def2/J
   F. Weigend, Phys. Chem. Chem. Phys. 8, 1057 (2006).

================================================================================
                                        WARNINGS
                       Please study these warnings very carefully!
================================================================================


INFO   : the flag for use of the SHARK integral package has been found!

================================================================================
                                       INPUT FILE
================================================================================
NAME = pbeh-3c.inp
|  1> ! PBEh-3c def2/J TightSCF DefGrid3
|  2> 
|  3> %maxcore 60000
|  4> 
|  5> %pal
|  6> nprocs 4
|  7> end
|  8> 
|  9> *xyzfile -1 1 20.xyz
| 10> 
| 11>                          ****END OF INPUT****
================================================================================

                       ****************************
                       * Single Point Calculation *
                       ****************************

---------------------------------
CARTESIAN COORDINATES (ANGSTROEM)
---------------------------------
  O      1.597754   -0.226446   -0.027520
  O      0.474965    1.771463   -0.184510
  C      0.560403    0.508074   -0.072294
  H     -0.423142   -0.039746   -0.003354
  H      2.403943    2.352078   -0.278866
  O      3.324627    2.018953   -0.268760
  H      3.077967    1.074134   -0.177509

----------------------------
CARTESIAN COORDINATES (A.U.)
----------------------------
  NO LB      ZA    FRAG     MASS         X           Y           Z
   0 O     8.0000    0    15.999    3.019317   -0.427922   -0.052006
   1 O     8.0000    0    15.999    0.897554    3.347580   -0.348673
   2 C     6.0000    0    12.011    1.059008    0.960121   -0.136616
   3 H     1.0000    0     1.008   -0.799622   -0.075109   -0.006338
   4 H     1.0000    0     1.008    4.542794    4.444783   -0.526980
   5 O     8.0000    0    15.999    6.282635    3.815268   -0.507883
   6 H     1.0000    0     1.008    5.816515    2.029819   -0.335444

--------------------------------
INTERNAL COORDINATES (ANGSTROEM)
--------------------------------
 O      0   0   0     0.000000000000     0.00000000     0.00000000
 O      1   0   0     2.297159757394     0.00000000     0.00000000
 C      2   1   0     1.271236977950    25.41228912     0.00000000
 H      3   2   1     1.127927118105   115.43453391   180.04852090
 H      2   1   3     2.016673462919    77.64787879   180.05788634
 O      5   2   1     0.979149541233   143.22254632     0.00000000
 H      6   5   2     0.980740072125    95.29194651   359.96955604

---------------------------
INTERNAL COORDINATES (A.U.)
---------------------------
 O      0   0   0     0.000000000000     0.00000000     0.00000000
 O      1   0   0     4.341002827340     0.00000000     0.00000000
 C      2   1   0     2.402289739639    25.41228912     0.00000000
 H      3   2   1     2.131473352241   115.43453391   180.04852090
 H      2   1   3     3.810960546463    77.64787879   180.05788634
 O      5   2   1     1.850324477085   143.22254632     0.00000000
 H      6   5   2     1.853330144878    95.29194651   359.96955604

---------------------
BASIS SET INFORMATION
---------------------
There are 3 groups of distinct atoms

 Group   1 Type O   : 8s4p1d contracted to 4s2p1d pattern {5111/31/1}
 Group   2 Type C   : 8s4p1d contracted to 4s2p1d pattern {5111/31/1}
 Group   3 Type H   : 4s contracted to 2s pattern {31}

Atom   0O    basis set group =>   1
Atom   1O    basis set group =>   1
Atom   2C    basis set group =>   2
Atom   3H    basis set group =>   3
Atom   4H    basis set group =>   3
Atom   5O    basis set group =>   1
Atom   6H    basis set group =>   3
---------------------------------
AUXILIARY/J BASIS SET INFORMATION
---------------------------------
There are 3 groups of distinct atoms

 Group   1 Type O   : 12s5p4d2f1g contracted to 6s4p3d1f1g pattern {711111/2111/211/2/1}
 Group   2 Type C   : 12s5p4d2f1g contracted to 6s4p3d1f1g pattern {711111/2111/211/2/1}
 Group   3 Type H   : 5s2p1d contracted to 3s1p1d pattern {311/2/1}

Atom   0O    basis set group =>   1
Atom   1O    basis set group =>   1
Atom   2C    basis set group =>   2
Atom   3H    basis set group =>   3
Atom   4H    basis set group =>   3
Atom   5O    basis set group =>   1
Atom   6H    basis set group =>   3


           ************************************************************
           *        Program running with 4 parallel MPI-processes     *
           *              working on a common directory               *
           ************************************************************
------------------------------------------------------------------------------
                           ORCA GTO INTEGRAL CALCULATION
                           -- RI-GTO INTEGRALS CHOSEN --
------------------------------------------------------------------------------
------------------------------------------------------------------------------
                   ___                                                        
                  /   \      - P O W E R E D   B Y -                         
                 /     \                                                     
                 |  |  |   _    _      __       _____    __    __             
                 |  |  |  | |  | |    /  \     |  _  \  |  |  /  |          
                  \  \/   | |  | |   /    \    | | | |  |  | /  /          
                 / \  \   | |__| |  /  /\  \   | |_| |  |  |/  /          
                |  |  |   |  __  | /  /__\  \  |    /   |      \           
                |  |  |   | |  | | |   __   |  |    \   |  |\   \          
                \     /   | |  | | |  |  |  |  | |\  \  |  | \   \       
                 \___/    |_|  |_| |__|  |__|  |_| \__\ |__|  \__/        
                                                                              
                      - O R C A' S   B I G   F R I E N D -                    
                                      &                                       
                       - I N T E G R A L  F E E D E R -                       
                                                                              
 v1 FN, 2020, v2 2021                                                         
------------------------------------------------------------------------------


Reading SHARK input file pbeh-3c.SHARKINP.tmp ... ok
----------------------
SHARK INTEGRAL PACKAGE
----------------------

Number of atoms                             ...      7
Number of basis functions                   ...     66
Number of shells                            ...     34
Maximum angular momentum                    ...      2
Integral batch strategy                     ... SHARK/LIBINT Hybrid
RI-J (if used) integral strategy            ... SPLIT-RIJ (Revised 2003 algorithm where possible)
Printlevel                                  ...      1
Contraction scheme used                     ... SEGMENTED contraction
Coulomb Range Separation                    ... NOT USED
Exchange Range Separation                   ... NOT USED
Finite Nucleus Model                        ... NOT USED
Auxiliary Coulomb fitting basis             ... AVAILABLE
   # of basis functions in Aux-J            ...    229
   # of shells in Aux-J                     ...     75
   Maximum angular momentum in Aux-J        ...      4
Auxiliary J/K fitting basis                 ... NOT available
Auxiliary Correlation fitting basis         ... NOT available
Auxiliary 'external' fitting basis          ... NOT available
Integral threshold                          ...     2.500000e-11
Primitive cut-off                           ...     2.500000e-12
Primitive pair pre-selection threshold      ...     2.500000e-12

Calculating pre-screening integrals         ... done (  0.0 sec) Dimension = 34
Organizing shell pair data                  ... done (  0.1 sec)
Shell pair information
Total number of shell pairs                 ...       595
Shell pairs after pre-screening             ...       558
Total number of primitive shell pairs       ...      2141
Primitive shell pairs kept                  ...      1560
          la=0 lb=0:    222 shell pairs
          la=1 lb=0:    170 shell pairs
          la=1 lb=1:     36 shell pairs
          la=2 lb=0:     88 shell pairs
          la=2 lb=1:     32 shell pairs
          la=2 lb=2:     10 shell pairs

Calculating one electron integrals          ... done (  0.0 sec)
Calculating RI/J V-Matrix + Cholesky decomp.... done (  0.1 sec)
Calculating Nuclear repulsion               ... done (  0.0 sec) ENN=    113.573151986845 Eh

SHARK setup successfully completed in   0.8 seconds

Maximum memory used throughout the entire GTOINT-calculation: 9.3 MB


           ************************************************************
           *        Program running with 4 parallel MPI-processes     *
           *              working on a common directory               *
           ************************************************************
-------------------------------------------------------------------------------
                                 ORCA SCF
-------------------------------------------------------------------------------

------------
SCF SETTINGS
------------
Hamiltonian:
 Density Functional     Method          .... DFT(GTOs)
 Exchange Functional    Exchange        .... PBE
   PBE kappa parameter   XKappa         ....  1.024500
   PBE mue parameter    XMuePBE         ....  0.123457
 Correlation Functional Correlation     .... PBE
   PBE beta parameter  CBetaPBE         ....  0.030000
 LDA part of GGA corr.  LDAOpt          .... PW91-LDA
 Gradients option       PostSCFGGA      .... off
 Hybrid DFT is turned on
   Fraction HF Exchange ScalHFX         ....  0.420000
   Scaling of DF-GGA-X  ScalDFX         ....  0.580000
   Scaling of DF-GGA-C  ScalDFC         ....  1.000000
   Scaling of DF-LDA-C  ScalLDAC        ....  1.000000
   Perturbative correction              ....  0.000000
   Density functional embedding theory  .... OFF
 RI-approximation to the Coulomb term is turned on
   Number of AuxJ basis functions       .... 229
   RIJ-ON(X) (HFX calculated with O(N)) .... on
   Number of AuxJ basis functions       .... 229
   RIJ-COSX (HFX calculated with COS-X)).... on


General Settings:
 Integral files         IntName         .... pbeh-3c
 Hartree-Fock type      HFTyp           .... RHF
 Total Charge           Charge          ....   -1
 Multiplicity           Mult            ....    1
 Number of Electrons    NEL             ....   34
 Basis Dimension        Dim             ....   66
 Nuclear Repulsion      ENuc            ....    113.5731519868 Eh

Convergence Acceleration:
 DIIS                   CNVDIIS         .... on
   Start iteration      DIISMaxIt       ....    12
   Startup error        DIISStart       ....  0.200000
   # of expansion vecs  DIISMaxEq       ....     5
   Bias factor          DIISBfac        ....   1.050
   Max. coefficient     DIISMaxC        ....  10.000
 Trust-Rad. Augm. Hess. CNVTRAH         .... auto
   Auto Start mean grad. ratio tolernc. ....  1.125000
   Auto Start start iteration           ....    20
   Auto Start num. interpolation iter.  ....    10
   Max. Number of Micro iterations      ....    16
   Max. Number of Macro iterations      .... Maxiter - #DIIS iter
   Number of Davidson start vectors     ....     2
   Converg. threshold I  (grad. norm)   ....   1.000e-05
   Converg. threshold II (energy diff.) ....   1.000e-08
   Grad. Scal. Fac. for Micro threshold ....   0.100
   Minimum threshold for Micro iter.    ....   0.010
   NR start threshold (gradient norm)   ....   0.001
   Initial trust radius                 ....   0.400
   Minimum AH scaling param. (alpha)    ....   1.000
   Maximum AH scaling param. (alpha)    .... 1000.000
   Orbital update algorithm             .... Taylor
   White noise on init. David. guess    .... on
   Maximum white noise                  ....   0.010
   Quad. conv. algorithm                .... NR
   COSX micro iterations for RIJONX calc.... off
 SOSCF                  CNVSOSCF        .... on
   Start iteration      SOSCFMaxIt      ....   150
   Startup grad/error   SOSCFStart      ....  0.003300
 Level Shifting         CNVShift        .... on
   Level shift para.    LevelShift      ....    0.2500
   Turn off err/grad.   ShiftErr        ....    0.0010
 Zerner damping         CNVZerner       .... off
 Static damping         CNVDamp         .... on
   Fraction old density DampFac         ....    0.7000
   Max. Damping (<1)    DampMax         ....    0.9800
   Min. Damping (>=0)   DampMin         ....    0.0000
   Turn off err/grad.   DampErr         ....    0.1000
 Fernandez-Rico         CNVRico         .... off

SCF Procedure:
 Maximum # iterations   MaxIter         ....   125
 SCF integral mode      SCFMode         .... Direct
   Integral package                     .... SHARK and LIBINT hybrid scheme
 Reset frequency        DirectResetFreq ....    20
 Integral Threshold     Thresh          ....  2.500e-11 Eh
 Primitive CutOff       TCut            ....  2.500e-12 Eh

Convergence Tolerance:
 Convergence Check Mode ConvCheckMode   .... Total+1el-Energy
 Convergence forced     ConvForced      .... 0
 Energy Change          TolE            ....  1.000e-08 Eh
 1-El. energy change                    ....  1.000e-05 Eh
 Orbital Gradient       TolG            ....  1.000e-05
 Orbital Rotation angle TolX            ....  1.000e-05
 DIIS Error             TolErr          ....  5.000e-07


Diagonalization of the overlap matrix:
Smallest eigenvalue                        ... 1.898e-02
Time for diagonalization                   ...    0.002 sec
Threshold for overlap eigenvalues          ... 1.000e-08
Number of eigenvalues below threshold      ... 0
Time for construction of square roots      ...    0.055 sec
Total time needed                          ...    0.057 sec

--------------------------------
INITIAL GUESS: MINIMAL BASIS EHT
--------------------------------
The minimal basis has 23 functions
EHT matrix was diagonalized
Basis set overlap was calculated now projecting the orbitals
Using GuessMode=FMatrix for the initial guess
C*T matrix was formed
Effective Fockian was calculated
Effective Fockian was diagonalized
Initial density was built
                      ------------------
                      INITIAL GUESS DONE
                      ------------------
-------------------
DFT GRID GENERATION
-------------------

General Integration Accuracy     IntAcc      ... 4.959
Radial Grid Type                 RadialGrid  ... OptM3 with GC (2021)
Angular Grid (max. ang.)         AngularGrid ... 6 (Lebedev-590)
Angular grid pruning method      GridPruning ... 4 (adaptive)
Weight generation scheme         WeightScheme... Becke
Basis function cutoff            BFCut       ... 1.0000e-11
Integration weight cutoff        WCut        ... 1.0000e-14
Angular grids for H and He will be reduced by one unit
Partially contracted basis set               ... off
Rotationally invariant grid construction     ... off

Total number of grid points                  ...    85056
Total number of batches                      ...     1333
Average number of points per batch           ...       63
Average number of grid points per atom       ...    12151
Time for grid setup =    2.117 sec

--------------------
COSX GRID GENERATION
--------------------

GRIDX 1
-------
General Integration Accuracy     IntAcc      ... 4.020
Radial Grid Type                 RadialGrid  ... OptM3 with GC (2021)
Angular Grid (max. ang.)         AngularGrid ... 2 (Lebedev-110)
Angular grid pruning method      GridPruning ... 4 (adaptive)
Weight generation scheme         WeightScheme... Becke
Basis function cutoff            BFCut       ... 1.0000e-11
Integration weight cutoff        WCut        ... 1.0000e-14
Angular grids for H and He will be reduced by one unit
Partially contracted basis set               ... on
Rotationally invariant grid construction     ... off

Total number of grid points                  ...     9839
Total number of batches                      ...      157
Average number of points per batch           ...       62
Average number of grid points per atom       ...     1406
UseSFitting                                  ... on

GRIDX 2
-------
General Integration Accuracy     IntAcc      ... 4.338
Radial Grid Type                 RadialGrid  ... OptM3 with GC (2021)
Angular Grid (max. ang.)         AngularGrid ... 3 (Lebedev-194)
Angular grid pruning method      GridPruning ... 4 (adaptive)
Weight generation scheme         WeightScheme... Becke
Basis function cutoff            BFCut       ... 1.0000e-11
Integration weight cutoff        WCut        ... 1.0000e-14
Angular grids for H and He will be reduced by one unit
Partially contracted basis set               ... on
Rotationally invariant grid construction     ... off

Total number of grid points                  ...    21726
Total number of batches                      ...      343
Average number of points per batch           ...       63
Average number of grid points per atom       ...     3104
UseSFitting                                  ... on

GRIDX 3
-------
General Integration Accuracy     IntAcc      ... 4.871
Radial Grid Type                 RadialGrid  ... OptM3 with GC (2021)
Angular Grid (max. ang.)         AngularGrid ... 4 (Lebedev-302)
Angular grid pruning method      GridPruning ... 4 (adaptive)
Weight generation scheme         WeightScheme... Becke
Basis function cutoff            BFCut       ... 1.0000e-11
Integration weight cutoff        WCut        ... 1.0000e-14
Angular grids for H and He will be reduced by one unit
Partially contracted basis set               ... on
Rotationally invariant grid construction     ... off

Total number of grid points                  ...    41219
Total number of batches                      ...      647
Average number of points per batch           ...       63
Average number of grid points per atom       ...     5888
UseSFitting                                  ... on

Time for X-Grid setup             =    2.233 sec

--------------
SCF ITERATIONS
--------------
ITER       Energy         Delta-E        Max-DP      RMS-DP      [F,P]     Damp
               ***  Starting incremental Fock matrix formation  ***
  0   -263.8162406141   0.000000000000 0.19710073  0.01262104  0.5969674 0.7000
  1   -264.3369164437  -0.520675829605 0.10539195  0.00672638  0.2853395 0.7000
                               ***Turning on DIIS***
  2   -264.5697747758  -0.232858332159 0.05441443  0.00319939  0.1747519 0.7000
  3   -264.7233304826  -0.153555706800 0.02968919  0.00184389  0.1219808 0.7000
  4   -264.8333312227  -0.110000740009 0.07266869  0.00444428  0.0846454 0.0000
  5   -265.0935485132  -0.260217290530 0.01137317  0.00060837  0.0163233 0.0000
  6   -265.0941850501  -0.000636536901 0.00361408  0.00014202  0.0052227 0.0000
                      *** Initiating the SOSCF procedure ***
                           *** Shutting down DIIS ***
                      *** Re-Reading the Fockian *** 
                      *** Removing any level shift *** 
ITER      Energy       Delta-E        Grad      Rot      Max-DP    RMS-DP
  7   -265.09425398  -0.0000689270  0.000883  0.000883  0.001255  0.000060
               *** Restarting incremental Fock matrix formation ***
  8   -265.09427387  -0.0000198895  0.000306  0.000578  0.000617  0.000027
  9   -265.09427469  -0.0000008254  0.000093  0.000163  0.000210  0.000013
 10   -265.09427473  -0.0000000331  0.000076  0.000098  0.000101  0.000005
 11   -265.09427477  -0.0000000411  0.000029  0.000035  0.000066  0.000003
 12   -265.09427477  -0.0000000045  0.000022  0.000014  0.000032  0.000002
 13   -265.09427477  -0.0000000029  0.000004  0.000008  0.000009  0.000000
 14   -265.09427477  -0.0000000003  0.000004  0.000004  0.000006  0.000000
                 **** Energy Check signals convergence ****
              ***Rediagonalizing the Fockian in SOSCF/NRSCF***

               *****************************************************
               *                     SUCCESS                       *
               *           SCF CONVERGED AFTER  15 CYCLES          *
               *****************************************************

Old exchange energy                            =    -13.089950978 Eh
New exchange energy                            =    -13.089949096 Eh
Exchange energy change after final integration =      0.000001883 Eh
Total energy after final integration           =   -265.094272892 Eh
Final COS-X integration done in                =     0.603 sec

----------------
TOTAL SCF ENERGY
----------------

Total Energy       :         -265.09427289 Eh           -7213.58190 eV

Components:
Nuclear Repulsion  :          113.57315199 Eh            3090.48258 eV
Electronic Energy  :         -378.66742488 Eh          -10304.06448 eV
One Electron Energy:         -598.07529226 Eh          -16274.45608 eV
Two Electron Energy:          219.40786738 Eh            5970.39160 eV
Max COSX asymmetry :            0.00000259 Eh               0.00007 eV

Virial components:
Potential Energy   :         -528.44546103 Eh          -14379.73205 eV
Kinetic Energy     :          263.35118814 Eh            7166.15015 eV
Virial Ratio       :            2.00661886


DFT components:
N(Alpha)           :       17.000000381630 electrons
N(Beta)            :       17.000000381630 electrons
N(Total)           :       34.000000763261 electrons
E(X)               :      -17.456369777242 Eh       
E(C)               :       -1.521841030051 Eh       
E(XC)              :      -18.978210807293 Eh       
DFET-embed. en.    :        0.000000000000 Eh       

---------------
SCF CONVERGENCE
---------------

  Last Energy change         ...   -1.4137e-10  Tolerance :   1.0000e-08
  Last MAX-Density change    ...    1.1102e-15  Tolerance :   1.0000e-07
  Last RMS-Density change    ...    7.5752e-17  Tolerance :   5.0000e-09
  Last Orbital Gradient      ...    2.5740e-07  Tolerance :   1.0000e-05
  Last Orbital Rotation      ...    2.3922e-07  Tolerance :   1.0000e-05

             **** THE GBW FILE WAS UPDATED (pbeh-3c.gbw) ****
             **** DENSITY pbeh-3c.scfp WAS UPDATED ****
             **** ENERGY FILE WAS UPDATED (pbeh-3c.en.tmp) ****
             **** THE GBW FILE WAS UPDATED (pbeh-3c.gbw) ****
             **** DENSITY pbeh-3c.scfp WAS UPDATED ****
----------------
ORBITAL ENERGIES
----------------

  NO   OCC          E(Eh)            E(eV) 
   0   2.0000     -19.248092      -523.7672 
   1   2.0000     -19.240477      -523.5600 
   2   2.0000     -19.240137      -523.5507 
   3   2.0000     -10.337347      -281.2935 
   4   2.0000      -0.923465       -25.1288 
   5   2.0000      -0.870364       -23.6838 
   6   2.0000      -0.835835       -22.7442 
   7   2.0000      -0.425074       -11.5669 
   8   2.0000      -0.336179        -9.1479 
   9   2.0000      -0.304498        -8.2858 
  10   2.0000      -0.263252        -7.1635 
  11   2.0000      -0.243849        -6.6355 
  12   2.0000      -0.235812        -6.4168 
  13   2.0000      -0.137515        -3.7420 
  14   2.0000      -0.102113        -2.7786 
  15   2.0000      -0.101881        -2.7723 
  16   2.0000      -0.093886        -2.5548 
  17   0.0000       0.285130         7.7588 
  18   0.0000       0.376133        10.2351 
  19   0.0000       0.418399        11.3852 
  20   0.0000       0.453415        12.3381 
  21   0.0000       0.564508        15.3610 
  22   0.0000       0.567470        15.4416 
  23   0.0000       0.719895        19.5893 
  24   0.0000       0.859362        23.3844 
  25   0.0000       0.899381        24.4734 
  26   0.0000       0.932143        25.3649 
  27   0.0000       1.054377        28.6911 
  28   0.0000       1.142839        31.0982 
  29   0.0000       1.187540        32.3146 
  30   0.0000       1.198145        32.6032 
  31   0.0000       1.213793        33.0290 
  32   0.0000       1.236232        33.6396 
  33   0.0000       1.268530        34.5185 
  34   0.0000       1.354941        36.8698 
  35   0.0000       1.358334        36.9622 
  36   0.0000       1.392916        37.9032 
  37   0.0000       1.450744        39.4768 
  38   0.0000       1.605103        43.6771 
  39   0.0000       1.713447        46.6253 
  40   0.0000       1.769389        48.1475 
  41   0.0000       1.908917        51.9443 
  42   0.0000       1.996217        54.3198 
  43   0.0000       2.034740        55.3681 
  44   0.0000       2.054528        55.9066 
  45   0.0000       2.059113        56.0313 
  46   0.0000       2.106996        57.3343 
  47   0.0000       2.110480        57.4291 
  48   0.0000       2.158757        58.7428 
  49   0.0000       2.169302        59.0297 
  50   0.0000       2.191300        59.6283 
  51   0.0000       2.217469        60.3404 
  52   0.0000       2.250813        61.2477 
  53   0.0000       2.481518        67.5255 
  54   0.0000       2.638380        71.7940 
  55   0.0000       2.698986        73.4431 
  56   0.0000       2.861722        77.8714 
  57   0.0000       2.892824        78.7178 
  58   0.0000       2.978719        81.0551 
  59   0.0000       3.108659        84.5909 
  60   0.0000       3.144147        85.5566 
  61   0.0000       3.328028        90.5603 
  62   0.0000      14.085926       383.2975 
  63   0.0000      25.584466       696.1887 
  64   0.0000      25.765787       701.1227 
  65   0.0000      25.847451       703.3449 

                    ********************************
                    * MULLIKEN POPULATION ANALYSIS *
                    ********************************

-----------------------
MULLIKEN ATOMIC CHARGES
-----------------------
   0 O :   -0.589649
   1 O :   -0.588451
   2 C :    0.260768
   3 H :    0.030536
   4 H :    0.407180
   5 O :   -0.930743
   6 H :    0.410360
Sum of atomic charges:   -1.0000000

--------------------------------
MULLIKEN REDUCED ORBITAL CHARGES
--------------------------------
  0 O s       :     3.784541  s :     3.784541
      pz      :     1.578617  p :     4.781015
      px      :     1.503687
      py      :     1.698710
      dz2     :     0.002545  d :     0.024093
      dxz     :     0.005287
      dyz     :     0.002730
      dx2y2   :     0.005166
      dxy     :     0.008366
  1 O s       :     3.783848  s :     3.783848
      pz      :     1.573002  p :     4.780470
      px      :     1.815445
      py      :     1.392023
      dz2     :     0.002604  d :     0.024134
      dxz     :     0.000113
      dyz     :     0.007969
      dx2y2   :     0.008163
      dxy     :     0.005284
  2 C s       :     3.043898  s :     3.043898
      pz      :     0.799847  p :     2.560514
      px      :     0.902976
      py      :     0.857691
      dz2     :     0.007081  d :     0.134820
      dxz     :     0.009825
      dyz     :     0.024056
      dx2y2   :     0.043598
      dxy     :     0.050259
  3 H s       :     0.969464  s :     0.969464
  4 H s       :     0.592820  s :     0.592820
  5 O s       :     3.842413  s :     3.842413
      pz      :     1.993545  p :     5.061868
      px      :     1.607179
      py      :     1.461144
      dz2     :     0.005330  d :     0.026463
      dxz     :     0.001613
      dyz     :     0.000655
      dx2y2   :     0.012405
      dxy     :     0.006460
  6 H s       :     0.589640  s :     0.589640


                     *******************************
                     * LOEWDIN POPULATION ANALYSIS *
                     *******************************

----------------------
LOEWDIN ATOMIC CHARGES
----------------------
   0 O :   -0.441492
   1 O :   -0.441413
   2 C :   -0.002663
   3 H :    0.002248
   4 H :    0.285954
   5 O :   -0.689239
   6 H :    0.286605

-------------------------------
LOEWDIN REDUCED ORBITAL CHARGES
-------------------------------
  0 O s       :     3.566184  s :     3.566184
      pz      :     1.559629  p :     4.829436
      px      :     1.573591
      py      :     1.696216
      dz2     :     0.005819  d :     0.045872
      dxz     :     0.007263
      dyz     :     0.003918
      dx2y2   :     0.011402
      dxy     :     0.017469
  1 O s       :     3.566349  s :     3.566349
      pz      :     1.554956  p :     4.829150
      px      :     1.801228
      py      :     1.472966
      dz2     :     0.005808  d :     0.045914
      dxz     :     0.000191
      dyz     :     0.011278
      dx2y2   :     0.018139
      dxy     :     0.010498
  2 C s       :     2.902444  s :     2.902444
      pz      :     0.796445  p :     2.796773
      px      :     0.996235
      py      :     1.004093
      dz2     :     0.016589  d :     0.303446
      dxz     :     0.019895
      dyz     :     0.050765
      dx2y2   :     0.101065
      dxy     :     0.115131
  3 H s       :     0.997752  s :     0.997752
  4 H s       :     0.714046  s :     0.714046
  5 O s       :     3.604640  s :     3.604640
      pz      :     1.993443  p :     5.052211
      px      :     1.600904
      py      :     1.457864
      dz2     :     0.005859  d :     0.032388
      dxz     :     0.001618
      dyz     :     0.000708
      dx2y2   :     0.015993
      dxy     :     0.008211
  6 H s       :     0.713395  s :     0.713395


                      *****************************
                      * MAYER POPULATION ANALYSIS *
                      *****************************

  NA   - Mulliken gross atomic population
  ZA   - Total nuclear charge
  QA   - Mulliken gross atomic charge
  VA   - Mayer's total valence
  BVA  - Mayer's bonded valence
  FA   - Mayer's free valence

  ATOM       NA         ZA         QA         VA         BVA        FA
  0 O      8.5896     8.0000    -0.5896     1.9819     1.9819    -0.0000
  1 O      8.5885     8.0000    -0.5885     1.9825     1.9825    -0.0000
  2 C      5.7392     6.0000     0.2608     4.3170     4.3170    -0.0000
  3 H      0.9695     1.0000     0.0305     0.9285     0.9285     0.0000
  4 H      0.5928     1.0000     0.4072     0.8540     0.8540    -0.0000
  5 O      8.9307     8.0000    -0.9307     1.5309     1.5309    -0.0000
  6 H      0.5896     1.0000     0.4104     0.8535     0.8535    -0.0000

  Mayer bond orders larger than 0.100000
B(  0-O ,  1-O ) :   0.1429 B(  0-O ,  2-C ) :   1.7029 B(  0-O ,  6-H ) :   0.1091 
B(  1-O ,  2-C ) :   1.7116 B(  1-O ,  4-H ) :   0.1014 B(  2-C ,  3-H ) :   0.8762 
B(  4-H ,  5-O ) :   0.7534 B(  5-O ,  6-H ) :   0.7449 

-------
TIMINGS
-------

Total SCF time: 0 days 0 hours 0 min 34 sec 

Total time                  ....      34.679 sec
Sum of individual times     ....      31.888 sec  ( 92.0%)

Fock matrix formation       ....      26.182 sec  ( 75.5%)
  Split-RI-J                ....       2.754 sec  ( 10.5% of F)
  Chain of spheres X        ....       5.866 sec  ( 22.4% of F)
  XC integration            ....       8.993 sec  ( 34.3% of F)
    Basis function eval.    ....       0.916 sec  ( 10.2% of XC)
    Density eval.           ....       0.630 sec  (  7.0% of XC)
    XC-Functional eval.     ....       0.737 sec  (  8.2% of XC)
    XC-Potential eval.      ....       0.249 sec  (  2.8% of XC)
Diagonalization             ....       0.201 sec  (  0.6%)
Density matrix formation    ....       0.014 sec  (  0.0%)
Population analysis         ....       0.064 sec  (  0.2%)
Initial guess               ....       0.016 sec  (  0.0%)
Orbital Transformation      ....       0.000 sec  (  0.0%)
Orbital Orthonormalization  ....       0.000 sec  (  0.0%)
DIIS solution               ....       0.878 sec  (  2.5%)
SOSCF solution              ....       0.183 sec  (  0.5%)
Grid generation             ....       4.350 sec  ( 12.5%)

Maximum memory used throughout the entire SCF-calculation: 46.5 MB


-------------------------------------------------------------------------------
                          DFT DISPERSION CORRECTION                            
                                                                               
                              DFTD3 V3.1  Rev 1                                
                          USING Becke-Johnson damping                          
-------------------------------------------------------------------------------
The PBEh-3c composite method is recognized
Using three-body term ABC
Active option DFTDOPT                   ...         4   

molecular C6(AA) [au] = 423.154872 


            DFT-D V3
 parameters
 s6 scaling factor         :     1.0000 
 a1 scaling factor         :     0.4860 
 s8 scaling factor         :     0.0000 
 a2 scaling factor         :     4.5000 
 Damping factor alpha9(ATM):    16.0000 
 ad hoc parameters k1-k3   :    16.0000     1.3333    -4.0000 

 Edisp/kcal,au: -1.127771288912  -0.001797217756 
 E6   /kcal   :  -1.128074009 
 E8   /kcal   :  -0.000000000 
 E6(ABC)      :   0.000302720 
 % E8         :   0.000000000 
 % E6(ABC)    :  -0.026842346 

-------------------------   ----------------
Dispersion correction           -0.001797218
-------------------------   ----------------

------------------   -----------------
gCP correction             0.021594249
------------------   -----------------

-------------------------   --------------------
FINAL SINGLE POINT ENERGY      -265.074475860562
-------------------------   --------------------


                            ***************************************
                            *     ORCA property calculations      *
                            ***************************************

                                    ---------------------
                                    Active property flags
                                    ---------------------
   (+) Dipole Moment


------------------------------------------------------------------------------
                       ORCA ELECTRIC PROPERTIES CALCULATION
------------------------------------------------------------------------------

Dipole Moment Calculation                       ... on
Quadrupole Moment Calculation                   ... off
Polarizability Calculation                      ... off
GBWName                                         ... pbeh-3c.gbw
Electron density                                ... pbeh-3c.scfp
The origin for moment calculation is the CENTER OF MASS  = ( 2.943549,  1.994777 -0.270540)

-------------
DIPOLE MOMENT
-------------
                                X             Y             Z
Electronic contribution:     -0.91418      -0.49736       0.06637
Nuclear contribution   :      0.37265       0.21199      -0.02913
                        -----------------------------------------
Total Dipole Moment    :     -0.54153      -0.28538       0.03725
                        -----------------------------------------
Magnitude (a.u.)       :      0.61325
Magnitude (Debye)      :      1.55877



--------------------
Rotational spectrum 
--------------------
 
Rotational constants in cm-1:     0.389626     0.167140     0.116965 
Rotational constants in MHz : 11680.695941  5010.746042  3506.527928 

 Dipole components along the rotational axes: 
x,y,z [a.u.] :    -0.613224    -0.006005    -0.000305 
x,y,z [Debye]:    -1.558691    -0.015264    -0.000776 

 

Timings for individual modules:

Sum of individual times         ...       36.527 sec (=   0.609 min)
GTO integral calculation        ...        1.410 sec (=   0.023 min)   3.9 %
SCF iterations                  ...       35.118 sec (=   0.585 min)  96.1 %
                             ****ORCA TERMINATED NORMALLY****
TOTAL RUN TIME: 0 days 0 hours 0 minutes 38 seconds 816 msec
