
                                 *****************
                                 * O   R   C   A *
                                 *****************

                                            #,                                       
                                            ###                                      
                                            ####                                     
                                            #####                                    
                                            ######                                   
                                           ########,                                 
                                     ,,################,,,,,                         
                               ,,#################################,,                 
                          ,,##########################################,,             
                       ,#########################################, ''#####,          
                    ,#############################################,,   '####,        
                  ,##################################################,,,,####,       
                ,###########''''           ''''###############################       
              ,#####''   ,,,,##########,,,,          '''####'''          '####       
            ,##' ,,,,###########################,,,                        '##       
           ' ,,###''''                  '''############,,,                           
         ,,##''                                '''############,,,,        ,,,,,,###''
      ,#''                                            '''#######################'''  
     '                                                          ''''####''''         
             ,#######,   #######,   ,#######,      ##                                
            ,#'     '#,  ##    ##  ,#'     '#,    #''#        ######   ,####,        
            ##       ##  ##   ,#'  ##            #'  '#       #        #'  '#        
            ##       ##  #######   ##           ,######,      #####,   #    #        
            '#,     ,#'  ##    ##  '#,     ,#' ,#      #,         ##   #,  ,#        
             '#######'   ##     ##  '#######'  #'      '#     #####' # '####'        



                  #######################################################
                  #                        -***-                        #
                  #          Department of theory and spectroscopy      #
                  #    Directorship and core code : Frank Neese         #
                  #        Max Planck Institute fuer Kohlenforschung    #
                  #                Kaiser Wilhelm Platz 1               #
                  #                 D-45470 Muelheim/Ruhr               #
                  #                      Germany                        #
                  #                                                     #
                  #                  All rights reserved                #
                  #                        -***-                        #
                  #######################################################


                         Program Version 5.0.3 -  RELEASE  -


 With contributions from (in alphabetic order):
   Daniel Aravena         : Magnetic Suceptibility
   Michael Atanasov       : Ab Initio Ligand Field Theory (pilot matlab implementation)
   Alexander A. Auer      : GIAO ZORA, VPT2 properties, NMR spectrum
   Ute Becker             : Parallelization
   Giovanni Bistoni       : ED, misc. LED, open-shell LED, HFLD
   Martin Brehm           : Molecular dynamics
   Dmytro Bykov           : SCF Hessian
   Vijay G. Chilkuri      : MRCI spin determinant printing, contributions to CSF-ICE
   Dipayan Datta          : RHF DLPNO-CCSD density
   Achintya Kumar Dutta   : EOM-CC, STEOM-CC
   Dmitry Ganyushin       : Spin-Orbit,Spin-Spin,Magnetic field MRCI
   Miquel Garcia          : C-PCM and meta-GGA Hessian, CC/C-PCM, Gaussian charge scheme
   Yang Guo               : DLPNO-NEVPT2, F12-NEVPT2, CIM, IAO-localization
   Andreas Hansen         : Spin unrestricted coupled pair/coupled cluster methods
   Benjamin Helmich-Paris : MC-RPA, TRAH-SCF, COSX integrals
   Lee Huntington         : MR-EOM, pCC
   Robert Izsak           : Overlap fitted RIJCOSX, COSX-SCS-MP3, EOM
   Marcus Kettner         : VPT2
   Christian Kollmar      : KDIIS, OOCD, Brueckner-CCSD(T), CCSD density, CASPT2, CASPT2-K
   Simone Kossmann        : Meta GGA functionals, TD-DFT gradient, OOMP2, MP2 Hessian
   Martin Krupicka        : Initial AUTO-CI
   Lucas Lang             : DCDCAS
   Marvin Lechner         : AUTO-CI (C++ implementation), FIC-MRCC
   Dagmar Lenk            : GEPOL surface, SMD
   Dimitrios Liakos       : Extrapolation schemes; Compound Job, initial MDCI parallelization
   Dimitrios Manganas     : Further ROCIS development; embedding schemes
   Dimitrios Pantazis     : SARC Basis sets
   Anastasios Papadopoulos: AUTO-CI, single reference methods and gradients
   Taras Petrenko         : DFT Hessian,TD-DFT gradient, ASA, ECA, R-Raman, ABS, FL, XAS/XES, NRVS
   Peter Pinski           : DLPNO-MP2, DLPNO-MP2 Gradient
   Christoph Reimann      : Effective Core Potentials
   Marius Retegan         : Local ZFS, SOC
   Christoph Riplinger    : Optimizer, TS searches, QM/MM, DLPNO-CCSD(T), (RO)-DLPNO pert. Triples
   Tobias Risthaus        : Range-separated hybrids, TD-DFT gradient, RPA, STAB
   Michael Roemelt        : Original ROCIS implementation
   Masaaki Saitow         : Open-shell DLPNO-CCSD energy and density
   Barbara Sandhoefer     : DKH picture change effects
   Avijit Sen             : IP-ROCIS
   Kantharuban Sivalingam : CASSCF convergence, NEVPT2, FIC-MRCI
   Bernardo de Souza      : ESD, SOC TD-DFT
   Georgi Stoychev        : AutoAux, RI-MP2 NMR, DLPNO-MP2 response
   Willem Van den Heuvel  : Paramagnetic NMR
   Boris Wezisla          : Elementary symmetry handling
   Frank Wennmohs         : Technical directorship


 We gratefully acknowledge several colleagues who have allowed us to
 interface, adapt or use parts of their codes:
   Stefan Grimme, W. Hujo, H. Kruse, P. Pracht,  : VdW corrections, initial TS optimization,
                  C. Bannwarth, S. Ehlert          DFT functionals, gCP, sTDA/sTD-DF
   Ed Valeev, F. Pavosevic, A. Kumar             : LibInt (2-el integral package), F12 methods
   Garnet Chan, S. Sharma, J. Yang, R. Olivares  : DMRG
   Ulf Ekstrom                                   : XCFun DFT Library
   Mihaly Kallay                                 : mrcc  (arbitrary order and MRCC methods)
   Jiri Pittner, Ondrej Demel                    : Mk-CCSD
   Frank Weinhold                                : gennbo (NPA and NBO analysis)
   Christopher J. Cramer and Donald G. Truhlar   : smd solvation model
   Lars Goerigk                                  : TD-DFT with DH, B97 family of functionals
   V. Asgeirsson, H. Jonsson                     : NEB implementation
   FAccTs GmbH                                   : IRC, NEB, NEB-TS, DLPNO-Multilevel, CI-OPT
                                                   MM, QMMM, 2- and 3-layer-ONIOM, Crystal-QMMM,
                                                   LR-CPCM, SF, NACMEs, symmetry and pop. for TD-DFT,
                                                   nearIR, NL-DFT gradient (VV10), updates on ESD,
                                                   ML-optimized integration grids
   S Lehtola, MJT Oliveira, MAL Marques          : LibXC Library
   Liviu Ungur et al                             : ANISO software


 Your calculation uses the libint2 library for the computation of 2-el integrals
 For citations please refer to: http://libint.valeyev.net

 Your ORCA version has been built with support for libXC version: 5.1.0
 For citations please refer to: https://tddft.org/programs/libxc/

 This ORCA versions uses:
   CBLAS   interface :  Fast vector & matrix operations
   LAPACKE interface :  Fast linear algebra routines
   SCALAPACK package :  Parallel linear algebra routines
   Shared memory     :  Shared parallel matrices
   BLAS/LAPACK       :  OpenBLAS 0.3.15  USE64BITINT DYNAMIC_ARCH NO_AFFINITY Haswell SINGLE_THREADED
        Core in use  :  Haswell
   Copyright (c) 2011-2014, The OpenBLAS Project




***************************************
The coordinates will be read from file: hco.xyz
***************************************


Your calculation utilizes the geometrical counterpoise correction gCP
Please cite in your paper:
H.Kruse, S. Grimme J.Chem.Phys., 136, (2012), 154101 
   

Your calculation utilizes the atom-pairwise dispersion correction
with the Becke-Johnson damping scheme (D3BJ)
Cite in your paper:
S.Grimme, S.Ehrlich, L.Goerigk, J Comput Chem, (2011), 32, 1456–1465 
S.Grimme, J.Antony, S.Ehrlich and H.Krieg, J.Chem.Phys., 132, (2010), 154104 
   

Your calculation employs the composite approach PBEh-3c.
Please cite in your paper:
S. Grimme, J. G. Brandenburg, C. Bannwarth, A. Hansen J.Chem.Phys., 143, (2015), 054107 
   

================================================================================

----- Orbital basis set information -----
Your calculation utilizes the basis: def2-mSVP

----- AuxJ basis set information -----
Your calculation utilizes the auxiliary basis: def2/J
   F. Weigend, Phys. Chem. Chem. Phys. 8, 1057 (2006).

================================================================================
                                        WARNINGS
                       Please study these warnings very carefully!
================================================================================


WARNING: your system is open-shell and RHF/RKS was chosen
  ===> : WILL SWITCH to UHF/UKS


INFO   : the flag for use of the SHARK integral package has been found!

================================================================================
                                       INPUT FILE
================================================================================
NAME = pbeh-3c.inp
|  1> ! PBEh-3c def2/J TightSCF DefGrid3
|  2> 
|  3> %maxcore 60000
|  4> 
|  5> %pal
|  6> nprocs 4
|  7> end
|  8> 
|  9> *xyzfile 0 2 hco.xyz
| 10> 
| 11>                          ****END OF INPUT****
================================================================================

                       ****************************
                       * Single Point Calculation *
                       ****************************

---------------------------------
CARTESIAN COORDINATES (ANGSTROEM)
---------------------------------
  H     -0.608611    0.821034    0.000000
  C      0.304305    0.177798    0.000000
  O      0.304305   -0.998833    0.000000

----------------------------
CARTESIAN COORDINATES (A.U.)
----------------------------
  NO LB      ZA    FRAG     MASS         X           Y           Z
   0 H     1.0000    0     1.008   -1.150107    1.551530    0.000000
   1 C     6.0000    0    12.011    0.575054    0.335990    0.000000
   2 O     8.0000    0    15.999    0.575054   -1.887520    0.000000

--------------------------------
INTERNAL COORDINATES (ANGSTROEM)
--------------------------------
 H      0   0   0     0.000000000000     0.00000000     0.00000000
 C      1   0   0     1.116766758177     0.00000000     0.00000000
 O      2   1   0     1.176630900000   125.16833396     0.00000000

---------------------------
INTERNAL COORDINATES (A.U.)
---------------------------
 H      0   0   0     0.000000000000     0.00000000     0.00000000
 C      1   0   0     2.110383328421     0.00000000     0.00000000
 O      2   1   0     2.223510161709   125.16833396     0.00000000

---------------------
BASIS SET INFORMATION
---------------------
There are 3 groups of distinct atoms

 Group   1 Type H   : 4s contracted to 2s pattern {31}
 Group   2 Type C   : 8s4p1d contracted to 4s2p1d pattern {5111/31/1}
 Group   3 Type O   : 8s4p1d contracted to 4s2p1d pattern {5111/31/1}

Atom   0H    basis set group =>   1
Atom   1C    basis set group =>   2
Atom   2O    basis set group =>   3
---------------------------------
AUXILIARY/J BASIS SET INFORMATION
---------------------------------
There are 3 groups of distinct atoms

 Group   1 Type H   : 5s2p1d contracted to 3s1p1d pattern {311/2/1}
 Group   2 Type C   : 12s5p4d2f1g contracted to 6s4p3d1f1g pattern {711111/2111/211/2/1}
 Group   3 Type O   : 12s5p4d2f1g contracted to 6s4p3d1f1g pattern {711111/2111/211/2/1}

Atom   0H    basis set group =>   1
Atom   1C    basis set group =>   2
Atom   2O    basis set group =>   3


           ************************************************************
           *        Program running with 4 parallel MPI-processes     *
           *              working on a common directory               *
           ************************************************************
------------------------------------------------------------------------------
                           ORCA GTO INTEGRAL CALCULATION
                           -- RI-GTO INTEGRALS CHOSEN --
------------------------------------------------------------------------------
------------------------------------------------------------------------------
                   ___                                                        
                  /   \      - P O W E R E D   B Y -                         
                 /     \                                                     
                 |  |  |   _    _      __       _____    __    __             
                 |  |  |  | |  | |    /  \     |  _  \  |  |  /  |          
                  \  \/   | |  | |   /    \    | | | |  |  | /  /          
                 / \  \   | |__| |  /  /\  \   | |_| |  |  |/  /          
                |  |  |   |  __  | /  /__\  \  |    /   |      \           
                |  |  |   | |  | | |   __   |  |    \   |  |\   \          
                \     /   | |  | | |  |  |  |  | |\  \  |  | \   \       
                 \___/    |_|  |_| |__|  |__|  |_| \__\ |__|  \__/        
                                                                              
                      - O R C A' S   B I G   F R I E N D -                    
                                      &                                       
                       - I N T E G R A L  F E E D E R -                       
                                                                              
 v1 FN, 2020, v2 2021                                                         
------------------------------------------------------------------------------


Reading SHARK input file pbeh-3c.SHARKINP.tmp ... ok
----------------------
SHARK INTEGRAL PACKAGE
----------------------

Number of atoms                             ...      3
Number of basis functions                   ...     32
Number of shells                            ...     16
Maximum angular momentum                    ...      2
Integral batch strategy                     ... SHARK/LIBINT Hybrid
RI-J (if used) integral strategy            ... SPLIT-RIJ (Revised 2003 algorithm where possible)
Printlevel                                  ...      1
Contraction scheme used                     ... SEGMENTED contraction
Coulomb Range Separation                    ... NOT USED
Exchange Range Separation                   ... NOT USED
Finite Nucleus Model                        ... NOT USED
Auxiliary Coulomb fitting basis             ... AVAILABLE
   # of basis functions in Aux-J            ...    109
   # of shells in Aux-J                     ...     35
   Maximum angular momentum in Aux-J        ...      4
Auxiliary J/K fitting basis                 ... NOT available
Auxiliary Correlation fitting basis         ... NOT available
Auxiliary 'external' fitting basis          ... NOT available
Integral threshold                          ...     2.500000e-11
Primitive cut-off                           ...     2.500000e-12
Primitive pair pre-selection threshold      ...     2.500000e-12

Calculating pre-screening integrals         ... done (  0.0 sec) Dimension = 16
Organizing shell pair data                  ... done (  0.0 sec)
Shell pair information
Total number of shell pairs                 ...       136
Shell pairs after pre-screening             ...       135
Total number of primitive shell pairs       ...       494
Primitive shell pairs kept                  ...       435
          la=0 lb=0:     54 shell pairs
          la=1 lb=0:     40 shell pairs
          la=1 lb=1:     10 shell pairs
          la=2 lb=0:     20 shell pairs
          la=2 lb=1:      8 shell pairs
          la=2 lb=2:      3 shell pairs

Calculating one electron integrals          ... done (  0.0 sec)
Calculating RI/J V-Matrix + Cholesky decomp.... done (  0.0 sec)
Calculating Nuclear repulsion               ... done (  0.0 sec) ENN=     26.509846855590 Eh

SHARK setup successfully completed in   0.2 seconds

Maximum memory used throughout the entire GTOINT-calculation: 8.8 MB


           ************************************************************
           *        Program running with 4 parallel MPI-processes     *
           *              working on a common directory               *
           ************************************************************
-------------------------------------------------------------------------------
                                 ORCA SCF
-------------------------------------------------------------------------------

------------
SCF SETTINGS
------------
Hamiltonian:
 Density Functional     Method          .... DFT(GTOs)
 Exchange Functional    Exchange        .... PBE
   PBE kappa parameter   XKappa         ....  1.024500
   PBE mue parameter    XMuePBE         ....  0.123457
 Correlation Functional Correlation     .... PBE
   PBE beta parameter  CBetaPBE         ....  0.030000
 LDA part of GGA corr.  LDAOpt          .... PW91-LDA
 Gradients option       PostSCFGGA      .... off
 Hybrid DFT is turned on
   Fraction HF Exchange ScalHFX         ....  0.420000
   Scaling of DF-GGA-X  ScalDFX         ....  0.580000
   Scaling of DF-GGA-C  ScalDFC         ....  1.000000
   Scaling of DF-LDA-C  ScalLDAC        ....  1.000000
   Perturbative correction              ....  0.000000
   Density functional embedding theory  .... OFF
 RI-approximation to the Coulomb term is turned on
   Number of AuxJ basis functions       .... 109
   RIJ-ON(X) (HFX calculated with O(N)) .... on
   Number of AuxJ basis functions       .... 109
   RIJ-COSX (HFX calculated with COS-X)).... on


General Settings:
 Integral files         IntName         .... pbeh-3c
 Hartree-Fock type      HFTyp           .... UHF
 Total Charge           Charge          ....    0
 Multiplicity           Mult            ....    2
 Number of Electrons    NEL             ....   15
 Basis Dimension        Dim             ....   32
 Nuclear Repulsion      ENuc            ....     26.5098468556 Eh

Convergence Acceleration:
 DIIS                   CNVDIIS         .... on
   Start iteration      DIISMaxIt       ....    12
   Startup error        DIISStart       ....  0.200000
   # of expansion vecs  DIISMaxEq       ....     5
   Bias factor          DIISBfac        ....   1.050
   Max. coefficient     DIISMaxC        ....  10.000
 Trust-Rad. Augm. Hess. CNVTRAH         .... auto
   Auto Start mean grad. ratio tolernc. ....  1.125000
   Auto Start start iteration           ....    20
   Auto Start num. interpolation iter.  ....    10
   Max. Number of Micro iterations      ....    16
   Max. Number of Macro iterations      .... Maxiter - #DIIS iter
   Number of Davidson start vectors     ....     2
   Converg. threshold I  (grad. norm)   ....   1.000e-05
   Converg. threshold II (energy diff.) ....   1.000e-08
   Grad. Scal. Fac. for Micro threshold ....   0.100
   Minimum threshold for Micro iter.    ....   0.010
   NR start threshold (gradient norm)   ....   0.001
   Initial trust radius                 ....   0.400
   Minimum AH scaling param. (alpha)    ....   1.000
   Maximum AH scaling param. (alpha)    .... 1000.000
   Orbital update algorithm             .... Taylor
   White noise on init. David. guess    .... on
   Maximum white noise                  ....   0.010
   Quad. conv. algorithm                .... NR
   COSX micro iterations for RIJONX calc.... off
 SOSCF                  CNVSOSCF        .... off
 Level Shifting         CNVShift        .... on
   Level shift para.    LevelShift      ....    0.2500
   Turn off err/grad.   ShiftErr        ....    0.0010
 Zerner damping         CNVZerner       .... off
 Static damping         CNVDamp         .... on
   Fraction old density DampFac         ....    0.7000
   Max. Damping (<1)    DampMax         ....    0.9800
   Min. Damping (>=0)   DampMin         ....    0.0000
   Turn off err/grad.   DampErr         ....    0.1000
 Fernandez-Rico         CNVRico         .... off

SCF Procedure:
 Maximum # iterations   MaxIter         ....   125
 SCF integral mode      SCFMode         .... Direct
   Integral package                     .... SHARK and LIBINT hybrid scheme
 Reset frequency        DirectResetFreq ....    20
 Integral Threshold     Thresh          ....  2.500e-11 Eh
 Primitive CutOff       TCut            ....  2.500e-12 Eh

Convergence Tolerance:
 Convergence Check Mode ConvCheckMode   .... Total+1el-Energy
 Convergence forced     ConvForced      .... 0
 Energy Change          TolE            ....  1.000e-08 Eh
 1-El. energy change                    ....  1.000e-05 Eh
 DIIS Error             TolErr          ....  5.000e-07


Diagonalization of the overlap matrix:
Smallest eigenvalue                        ... 2.425e-02
Time for diagonalization                   ...    0.001 sec
Threshold for overlap eigenvalues          ... 1.000e-08
Number of eigenvalues below threshold      ... 0
Time for construction of square roots      ...    0.002 sec
Total time needed                          ...    0.003 sec

--------------------------------
INITIAL GUESS: MINIMAL BASIS EHT
--------------------------------
The minimal basis has 11 functions
EHT matrix was diagonalized
Basis set overlap was calculated now projecting the orbitals
Using GuessMode=FMatrix for the initial guess
C*T matrix was formed
Effective Fockian was calculated
Effective Fockian was diagonalized
Initial density was built
                      ------------------
                      INITIAL GUESS DONE
                      ------------------
-------------------
DFT GRID GENERATION
-------------------

General Integration Accuracy     IntAcc      ... 4.959
Radial Grid Type                 RadialGrid  ... OptM3 with GC (2021)
Angular Grid (max. ang.)         AngularGrid ... 6 (Lebedev-590)
Angular grid pruning method      GridPruning ... 4 (adaptive)
Weight generation scheme         WeightScheme... Becke
Basis function cutoff            BFCut       ... 1.0000e-11
Integration weight cutoff        WCut        ... 1.0000e-14
Angular grids for H and He will be reduced by one unit
Partially contracted basis set               ... off
Rotationally invariant grid construction     ... off

Total number of grid points                  ...    38219
Total number of batches                      ...      599
Average number of points per batch           ...       63
Average number of grid points per atom       ...    12740
Time for grid setup =    0.678 sec

--------------------
COSX GRID GENERATION
--------------------

GRIDX 1
-------
General Integration Accuracy     IntAcc      ... 4.020
Radial Grid Type                 RadialGrid  ... OptM3 with GC (2021)
Angular Grid (max. ang.)         AngularGrid ... 2 (Lebedev-110)
Angular grid pruning method      GridPruning ... 4 (adaptive)
Weight generation scheme         WeightScheme... Becke
Basis function cutoff            BFCut       ... 1.0000e-11
Integration weight cutoff        WCut        ... 1.0000e-14
Angular grids for H and He will be reduced by one unit
Partially contracted basis set               ... on
Rotationally invariant grid construction     ... off

Total number of grid points                  ...     4575
Total number of batches                      ...       73
Average number of points per batch           ...       62
Average number of grid points per atom       ...     1525
UseSFitting                                  ... on

GRIDX 2
-------
General Integration Accuracy     IntAcc      ... 4.338
Radial Grid Type                 RadialGrid  ... OptM3 with GC (2021)
Angular Grid (max. ang.)         AngularGrid ... 3 (Lebedev-194)
Angular grid pruning method      GridPruning ... 4 (adaptive)
Weight generation scheme         WeightScheme... Becke
Basis function cutoff            BFCut       ... 1.0000e-11
Integration weight cutoff        WCut        ... 1.0000e-14
Angular grids for H and He will be reduced by one unit
Partially contracted basis set               ... on
Rotationally invariant grid construction     ... off

Total number of grid points                  ...    10186
Total number of batches                      ...      160
Average number of points per batch           ...       63
Average number of grid points per atom       ...     3395
UseSFitting                                  ... on

GRIDX 3
-------
General Integration Accuracy     IntAcc      ... 4.871
Radial Grid Type                 RadialGrid  ... OptM3 with GC (2021)
Angular Grid (max. ang.)         AngularGrid ... 4 (Lebedev-302)
Angular grid pruning method      GridPruning ... 4 (adaptive)
Weight generation scheme         WeightScheme... Becke
Basis function cutoff            BFCut       ... 1.0000e-11
Integration weight cutoff        WCut        ... 1.0000e-14
Angular grids for H and He will be reduced by one unit
Partially contracted basis set               ... on
Rotationally invariant grid construction     ... off

Total number of grid points                  ...    19037
Total number of batches                      ...      298
Average number of points per batch           ...       63
Average number of grid points per atom       ...     6346
UseSFitting                                  ... on

Time for X-Grid setup             =    0.366 sec

--------------
SCF ITERATIONS
--------------
ITER       Energy         Delta-E        Max-DP      RMS-DP      [F,P]     Damp
               ***  Starting incremental Fock matrix formation  ***
  0   -113.2499739138   0.000000000000 0.07161554  0.00542455  0.2067732 0.7000
  1   -113.3746488433  -0.124674929416 0.04093117  0.00342909  0.1220810 0.7000
                               ***Turning on DIIS***
  2   -113.4410762883  -0.066427445087 0.11603128  0.00735566  0.0745056 0.0000
  3   -113.5982156256  -0.157139337272 0.03047150  0.00228177  0.0370670 0.0000
  4   -113.6015785858  -0.003362960156 0.01565707  0.00116938  0.0289024 0.0000
  5   -113.6055487641  -0.003970178312 0.01374223  0.00070460  0.0052777 0.0000
  6   -113.6058788167  -0.000330052630 0.00901291  0.00045135  0.0021425 0.0000
  7   -113.6059638429  -0.000085026135 0.00812575  0.00041478  0.0009755 0.0000
               *** Restarting incremental Fock matrix formation ***
                                   *** Resetting DIIS ***
  8   -113.6059901057  -0.000026262829 0.00091210  0.00004727  0.0002569 0.0000
  9   -113.6059910113  -0.000000905635 0.00023820  0.00001598  0.0002743 0.0000
 10   -113.6059912416  -0.000000230287 0.00025294  0.00001647  0.0002253 0.0000
 11   -113.6059914640  -0.000000222368 0.00015509  0.00000852  0.0001145 0.0000
 12   -113.6059915240  -0.000000060052 0.00008225  0.00000442  0.0000362 0.0000
 13   -113.6059915426  -0.000000018551 0.00005849  0.00000300  0.0000201 0.0000
                 **** Energy Check signals convergence ****

               *****************************************************
               *                     SUCCESS                       *
               *           SCF CONVERGED AFTER  14 CYCLES          *
               *****************************************************

Old exchange energy                            =     -5.743702520 Eh
New exchange energy                            =     -5.743701008 Eh
Exchange energy change after final integration =      0.000001512 Eh
Total energy after final integration           =   -113.605990035 Eh
Final COS-X integration done in                =     0.181 sec

----------------
TOTAL SCF ENERGY
----------------

Total Energy       :         -113.60599004 Eh           -3091.37615 eV

Components:
Nuclear Repulsion  :           26.50984686 Eh             721.36961 eV
Electronic Energy  :         -140.11583689 Eh           -3812.74576 eV
One Electron Energy:         -207.06862188 Eh           -5634.62366 eV
Two Electron Energy:           66.95278499 Eh            1821.87790 eV
Max COSX asymmetry :            0.00000012 Eh               0.00000 eV

Virial components:
Potential Energy   :         -226.48078606 Eh           -6162.85550 eV
Kinetic Energy     :          112.87479603 Eh            3071.47935 eV
Virial Ratio       :            2.00647792


DFT components:
N(Alpha)           :        7.999999662026 electrons
N(Beta)            :        6.999999940849 electrons
N(Total)           :       14.999999602875 electrons
E(X)               :       -7.655087812915 Eh       
E(C)               :       -0.647694755001 Eh       
E(XC)              :       -8.302782567916 Eh       
DFET-embed. en.    :        0.000000000000 Eh       

---------------
SCF CONVERGENCE
---------------

  Last Energy change         ...   -4.7934e-09  Tolerance :   1.0000e-08
  Last MAX-Density change    ...    0.0000e+00  Tolerance :   1.0000e-07
  Last RMS-Density change    ...    0.0000e+00  Tolerance :   5.0000e-09
  Last DIIS Error            ...    2.5907e-06  Tolerance :   5.0000e-07

             **** THE GBW FILE WAS UPDATED (pbeh-3c.gbw) ****
             **** DENSITY pbeh-3c.scfp WAS UPDATED ****
             **** ENERGY FILE WAS UPDATED (pbeh-3c.en.tmp) ****
----------------------
UHF SPIN CONTAMINATION
----------------------

Warning: in a DFT calculation there is little theoretical justification to 
         calculate <S**2> as in Hartree-Fock theory. We will do it anyways
         but you should keep in mind that the values have only limited relevance

Expectation value of <S**2>     :     0.753853
Ideal value S*(S+1) for S=0.5   :     0.750000
Deviation                       :     0.003853

             **** THE GBW FILE WAS UPDATED (pbeh-3c.gbw) ****
             **** DENSITY pbeh-3c.scfp WAS UPDATED ****
----------------
ORBITAL ENERGIES
----------------
                 SPIN UP ORBITALS
  NO   OCC          E(Eh)            E(eV) 
   0   1.0000     -19.563706      -532.3555 
   1   1.0000     -10.553823      -287.1841 
   2   1.0000      -1.222976       -33.2789 
   3   1.0000      -0.697647       -18.9839 
   4   1.0000      -0.572617       -15.5817 
   5   1.0000      -0.509674       -13.8689 
   6   1.0000      -0.489692       -13.3252 
   7   1.0000      -0.270618        -7.3639 
   8   0.0000      -0.009688        -0.2636 
   9   0.0000       0.183639         4.9971 
  10   0.0000       0.265732         7.2309 
  11   0.0000       0.498431        13.5630 
  12   0.0000       0.501477        13.6459 
  13   0.0000       0.646717        17.5981 
  14   0.0000       0.765287        20.8245 
  15   0.0000       0.905236        24.6327 
  16   0.0000       0.951110        25.8810 
  17   0.0000       1.043493        28.3949 
  18   0.0000       1.082108        29.4456 
  19   0.0000       1.541343        41.9421 
  20   0.0000       1.562587        42.5202 
  21   0.0000       1.574855        42.8540 
  22   0.0000       1.756017        47.7837 
  23   0.0000       1.866883        50.8005 
  24   0.0000       1.986016        54.0422 
  25   0.0000       2.104846        57.2758 
  26   0.0000       2.405595        65.4596 
  27   0.0000       2.627672        71.5026 
  28   0.0000       2.704152        73.5837 
  29   0.0000       2.930219        79.7353 
  30   0.0000      13.570027       369.2592 
  31   0.0000      25.432532       692.0544 

                 SPIN DOWN ORBITALS
  NO   OCC          E(Eh)            E(eV) 
   0   1.0000     -19.553903      -532.0888 
   1   1.0000     -10.542019      -286.8629 
   2   1.0000      -1.202705       -32.7273 
   3   1.0000      -0.662469       -18.0267 
   4   1.0000      -0.542310       -14.7570 
   5   1.0000      -0.481435       -13.1005 
   6   1.0000      -0.438015       -11.9190 
   7   0.0000      -0.034010        -0.9255 
   8   0.0000       0.010541         0.2868 
   9   0.0000       0.210183         5.7194 
  10   0.0000       0.280317         7.6278 
  11   0.0000       0.513895        13.9838 
  12   0.0000       0.540177        14.6990 
  13   0.0000       0.674673        18.3588 
  14   0.0000       0.786126        21.3916 
  15   0.0000       0.917282        24.9605 
  16   0.0000       0.981491        26.7077 
  17   0.0000       1.047543        28.5051 
  18   0.0000       1.115352        30.3503 
  19   0.0000       1.559988        42.4494 
  20   0.0000       1.593898        43.3722 
  21   0.0000       1.597969        43.4830 
  22   0.0000       1.783086        48.5202 
  23   0.0000       1.879079        51.1323 
  24   0.0000       2.015544        54.8457 
  25   0.0000       2.132268        58.0220 
  26   0.0000       2.430024        66.1243 
  27   0.0000       2.638572        71.7992 
  28   0.0000       2.737923        74.5027 
  29   0.0000       2.939849        79.9974 
  30   0.0000      13.586423       369.7054 
  31   0.0000      25.445238       692.4001 

                    ********************************
                    * MULLIKEN POPULATION ANALYSIS *
                    ********************************

--------------------------------------------
MULLIKEN ATOMIC CHARGES AND SPIN POPULATIONS
--------------------------------------------
   0 H :    0.194614    0.165726
   1 C :    0.019710    0.588175
   2 O :   -0.214323    0.246099
Sum of atomic charges         :    0.0000000
Sum of atomic spin populations:    1.0000000

-----------------------------------------------------
MULLIKEN REDUCED ORBITAL CHARGES AND SPIN POPULATIONS
-----------------------------------------------------
CHARGE
  0 H s       :     0.805386  s :     0.805386
  1 C s       :     3.415239  s :     3.415239
      pz      :     0.587733  p :     2.488133
      px      :     1.016458
      py      :     0.883942
      dz2     :     0.006682  d :     0.076919
      dxz     :     0.000095
      dyz     :     0.017527
      dx2y2   :     0.020618
      dxy     :     0.031998
  2 O s       :     3.767203  s :     3.767203
      pz      :     1.381944  p :     4.413756
      px      :     1.616416
      py      :     1.415396
      dz2     :     0.002306  d :     0.033364
      dxz     :     0.000004
      dyz     :     0.012696
      dx2y2   :     0.007591
      dxy     :     0.010766

SPIN
  0 H s       :     0.165726  s :     0.165726
  1 C s       :     0.168996  s :     0.168996
      pz      :     0.022147  p :     0.415667
      px      :     0.323206
      py      :     0.070313
      dz2     :     0.001039  d :     0.003512
      dxz     :    -0.000073
      dyz     :    -0.001090
      dx2y2   :    -0.000203
      dxy     :     0.003839
  2 O s       :     0.006652  s :     0.006652
      pz      :    -0.021014  p :     0.241102
      px      :     0.261492
      py      :     0.000624
      dz2     :    -0.000129  d :    -0.001655
      dxz     :    -0.000001
      dyz     :     0.000032
      dx2y2   :     0.000127
      dxy     :    -0.001683


                     *******************************
                     * LOEWDIN POPULATION ANALYSIS *
                     *******************************

-------------------------------------------
LOEWDIN ATOMIC CHARGES AND SPIN POPULATIONS
-------------------------------------------
   0 H :    0.109501    0.115253
   1 C :   -0.041512    0.611318
   2 O :   -0.067989    0.273428

----------------------------------------------------
LOEWDIN REDUCED ORBITAL CHARGES AND SPIN POPULATIONS
----------------------------------------------------
CHARGE
  0 H s       :     0.890499  s :     0.890499
  1 C s       :     3.186939  s :     3.186939
      pz      :     0.606833  p :     2.698512
      px      :     1.035861
      py      :     1.055819
      dz2     :     0.014379  d :     0.156061
      dxz     :     0.000094
      dyz     :     0.030724
      dx2y2   :     0.044318
      dxy     :     0.066546
  2 O s       :     3.529048  s :     3.529048
      pz      :     1.347858  p :     4.477092
      px      :     1.595579
      py      :     1.533655
      dz2     :     0.006125  d :     0.061849
      dxz     :     0.000005
      dyz     :     0.014486
      dx2y2   :     0.019385
      dxy     :     0.021848

SPIN
  0 H s       :     0.115253  s :     0.115253
  1 C s       :     0.137947  s :     0.137947
      pz      :     0.019815  p :     0.448557
      px      :     0.348632
      py      :     0.080111
      dz2     :     0.002738  d :     0.024814
      dxz     :    -0.000072
      dyz     :    -0.001506
      dx2y2   :     0.000265
      dxy     :     0.023390
  2 O s       :     0.007097  s :     0.007097
      pz      :    -0.018585  p :     0.258907
      px      :     0.269885
      py      :     0.007607
      dz2     :    -0.000106  d :     0.007425
      dxz     :    -0.000002
      dyz     :     0.000351
      dx2y2   :     0.000593
      dxy     :     0.006589


                      *****************************
                      * MAYER POPULATION ANALYSIS *
                      *****************************

  NA   - Mulliken gross atomic population
  ZA   - Total nuclear charge
  QA   - Mulliken gross atomic charge
  VA   - Mayer's total valence
  BVA  - Mayer's bonded valence
  FA   - Mayer's free valence

  ATOM       NA         ZA         QA         VA         BVA        FA
  0 H      0.8054     1.0000     0.1946     0.9044     0.8764     0.0280
  1 C      5.9803     6.0000     0.0197     3.5547     3.1474     0.4074
  2 O      8.2143     8.0000    -0.2143     2.4037     2.3216     0.0820

  Mayer bond orders larger than 0.100000
B(  0-H ,  1-C ) :   0.8511 B(  1-C ,  2-O ) :   2.2963 

-------
TIMINGS
-------

Total SCF time: 0 days 0 hours 0 min 10 sec 

Total time                  ....      10.619 sec
Sum of individual times     ....       9.828 sec  ( 92.6%)

Fock matrix formation       ....       8.266 sec  ( 77.8%)
  Split-RI-J                ....       0.499 sec  (  6.0% of F)
  Chain of spheres X        ....       2.085 sec  ( 25.2% of F)
  XC integration            ....       3.447 sec  ( 41.7% of F)
    Basis function eval.    ....       0.273 sec  (  7.9% of XC)
    Density eval.           ....       0.415 sec  ( 12.1% of XC)
    XC-Functional eval.     ....       0.690 sec  ( 20.0% of XC)
    XC-Potential eval.      ....       0.154 sec  (  4.5% of XC)
Diagonalization             ....       0.066 sec  (  0.6%)
Density matrix formation    ....       0.038 sec  (  0.4%)
Population analysis         ....       0.169 sec  (  1.6%)
Initial guess               ....       0.002 sec  (  0.0%)
Orbital Transformation      ....       0.000 sec  (  0.0%)
Orbital Orthonormalization  ....       0.000 sec  (  0.0%)
DIIS solution               ....       0.244 sec  (  2.3%)
Grid generation             ....       1.044 sec  (  9.8%)

Maximum memory used throughout the entire SCF-calculation: 43.9 MB


-------------------------------------------------------------------------------
                          DFT DISPERSION CORRECTION                            
                                                                               
                              DFTD3 V3.1  Rev 1                                
                          USING Becke-Johnson damping                          
-------------------------------------------------------------------------------
The PBEh-3c composite method is recognized
Using three-body term ABC
Active option DFTDOPT                   ...         4   

molecular C6(AA) [au] = 114.640870 


            DFT-D V3
 parameters
 s6 scaling factor         :     1.0000 
 a1 scaling factor         :     0.4860 
 s8 scaling factor         :     0.0000 
 a2 scaling factor         :     4.5000 
 Damping factor alpha9(ATM):    16.0000 
 ad hoc parameters k1-k3   :    16.0000     1.3333    -4.0000 

 Edisp/kcal,au: -0.235798990901  -0.000375769571 
 E6   /kcal   :  -0.235798638 
 E8   /kcal   :  -0.000000000 
 E6(ABC)      :  -0.000000353 
 % E8         :   0.000000000 
 % E6(ABC)    :   0.000149585 

-------------------------   ----------------
Dispersion correction           -0.000375770
-------------------------   ----------------

------------------   -----------------
gCP correction             0.003936864
------------------   -----------------

-------------------------   --------------------
FINAL SINGLE POINT ENERGY      -113.602428940841
-------------------------   --------------------


                            ***************************************
                            *     ORCA property calculations      *
                            ***************************************

                                    ---------------------
                                    Active property flags
                                    ---------------------
   (+) Dipole Moment


------------------------------------------------------------------------------
                       ORCA ELECTRIC PROPERTIES CALCULATION
------------------------------------------------------------------------------

Dipole Moment Calculation                       ... on
Quadrupole Moment Calculation                   ... off
Polarizability Calculation                      ... off
GBWName                                         ... pbeh-3c.gbw
Electron density                                ... pbeh-3c.scfp
The origin for moment calculation is the CENTER OF MASS  = ( 0.515127, -0.847712  0.000000)

-------------
DIPOLE MOMENT
-------------
                                X             Y             Z
Electronic contribution:      0.44540      -0.61109       0.00000
Nuclear contribution   :     -0.82626       1.18299       0.00000
                        -----------------------------------------
Total Dipole Moment    :     -0.38085       0.57190       0.00000
                        -----------------------------------------
Magnitude (a.u.)       :      0.68711
Magnitude (Debye)      :      1.74650



--------------------
Rotational spectrum 
--------------------
 
Rotational constants in cm-1:    24.757609     1.490315     1.405697 
Rotational constants in MHz : 742214.441302 44678.512502 42141.738638 

 Dipole components along the rotational axes: 
x,y,z [a.u.] :    -0.610510     0.315275     0.000000 
x,y,z [Debye]:    -1.551793     0.801364     0.000000 

 

Timings for individual modules:

Sum of individual times         ...       11.385 sec (=   0.190 min)
GTO integral calculation        ...        0.491 sec (=   0.008 min)   4.3 %
SCF iterations                  ...       10.893 sec (=   0.182 min)  95.7 %
                             ****ORCA TERMINATED NORMALLY****
TOTAL RUN TIME: 0 days 0 hours 0 minutes 13 seconds 628 msec
