
                                 *****************
                                 * O   R   C   A *
                                 *****************

                                            #,                                       
                                            ###                                      
                                            ####                                     
                                            #####                                    
                                            ######                                   
                                           ########,                                 
                                     ,,################,,,,,                         
                               ,,#################################,,                 
                          ,,##########################################,,             
                       ,#########################################, ''#####,          
                    ,#############################################,,   '####,        
                  ,##################################################,,,,####,       
                ,###########''''           ''''###############################       
              ,#####''   ,,,,##########,,,,          '''####'''          '####       
            ,##' ,,,,###########################,,,                        '##       
           ' ,,###''''                  '''############,,,                           
         ,,##''                                '''############,,,,        ,,,,,,###''
      ,#''                                            '''#######################'''  
     '                                                          ''''####''''         
             ,#######,   #######,   ,#######,      ##                                
            ,#'     '#,  ##    ##  ,#'     '#,    #''#        ######   ,####,        
            ##       ##  ##   ,#'  ##            #'  '#       #        #'  '#        
            ##       ##  #######   ##           ,######,      #####,   #    #        
            '#,     ,#'  ##    ##  '#,     ,#' ,#      #,         ##   #,  ,#        
             '#######'   ##     ##  '#######'  #'      '#     #####' # '####'        



                  #######################################################
                  #                        -***-                        #
                  #          Department of theory and spectroscopy      #
                  #    Directorship and core code : Frank Neese         #
                  #        Max Planck Institute fuer Kohlenforschung    #
                  #                Kaiser Wilhelm Platz 1               #
                  #                 D-45470 Muelheim/Ruhr               #
                  #                      Germany                        #
                  #                                                     #
                  #                  All rights reserved                #
                  #                        -***-                        #
                  #######################################################


                         Program Version 5.0.3 -  RELEASE  -


 With contributions from (in alphabetic order):
   Daniel Aravena         : Magnetic Suceptibility
   Michael Atanasov       : Ab Initio Ligand Field Theory (pilot matlab implementation)
   Alexander A. Auer      : GIAO ZORA, VPT2 properties, NMR spectrum
   Ute Becker             : Parallelization
   Giovanni Bistoni       : ED, misc. LED, open-shell LED, HFLD
   Martin Brehm           : Molecular dynamics
   Dmytro Bykov           : SCF Hessian
   Vijay G. Chilkuri      : MRCI spin determinant printing, contributions to CSF-ICE
   Dipayan Datta          : RHF DLPNO-CCSD density
   Achintya Kumar Dutta   : EOM-CC, STEOM-CC
   Dmitry Ganyushin       : Spin-Orbit,Spin-Spin,Magnetic field MRCI
   Miquel Garcia          : C-PCM and meta-GGA Hessian, CC/C-PCM, Gaussian charge scheme
   Yang Guo               : DLPNO-NEVPT2, F12-NEVPT2, CIM, IAO-localization
   Andreas Hansen         : Spin unrestricted coupled pair/coupled cluster methods
   Benjamin Helmich-Paris : MC-RPA, TRAH-SCF, COSX integrals
   Lee Huntington         : MR-EOM, pCC
   Robert Izsak           : Overlap fitted RIJCOSX, COSX-SCS-MP3, EOM
   Marcus Kettner         : VPT2
   Christian Kollmar      : KDIIS, OOCD, Brueckner-CCSD(T), CCSD density, CASPT2, CASPT2-K
   Simone Kossmann        : Meta GGA functionals, TD-DFT gradient, OOMP2, MP2 Hessian
   Martin Krupicka        : Initial AUTO-CI
   Lucas Lang             : DCDCAS
   Marvin Lechner         : AUTO-CI (C++ implementation), FIC-MRCC
   Dagmar Lenk            : GEPOL surface, SMD
   Dimitrios Liakos       : Extrapolation schemes; Compound Job, initial MDCI parallelization
   Dimitrios Manganas     : Further ROCIS development; embedding schemes
   Dimitrios Pantazis     : SARC Basis sets
   Anastasios Papadopoulos: AUTO-CI, single reference methods and gradients
   Taras Petrenko         : DFT Hessian,TD-DFT gradient, ASA, ECA, R-Raman, ABS, FL, XAS/XES, NRVS
   Peter Pinski           : DLPNO-MP2, DLPNO-MP2 Gradient
   Christoph Reimann      : Effective Core Potentials
   Marius Retegan         : Local ZFS, SOC
   Christoph Riplinger    : Optimizer, TS searches, QM/MM, DLPNO-CCSD(T), (RO)-DLPNO pert. Triples
   Tobias Risthaus        : Range-separated hybrids, TD-DFT gradient, RPA, STAB
   Michael Roemelt        : Original ROCIS implementation
   Masaaki Saitow         : Open-shell DLPNO-CCSD energy and density
   Barbara Sandhoefer     : DKH picture change effects
   Avijit Sen             : IP-ROCIS
   Kantharuban Sivalingam : CASSCF convergence, NEVPT2, FIC-MRCI
   Bernardo de Souza      : ESD, SOC TD-DFT
   Georgi Stoychev        : AutoAux, RI-MP2 NMR, DLPNO-MP2 response
   Willem Van den Heuvel  : Paramagnetic NMR
   Boris Wezisla          : Elementary symmetry handling
   Frank Wennmohs         : Technical directorship


 We gratefully acknowledge several colleagues who have allowed us to
 interface, adapt or use parts of their codes:
   Stefan Grimme, W. Hujo, H. Kruse, P. Pracht,  : VdW corrections, initial TS optimization,
                  C. Bannwarth, S. Ehlert          DFT functionals, gCP, sTDA/sTD-DF
   Ed Valeev, F. Pavosevic, A. Kumar             : LibInt (2-el integral package), F12 methods
   Garnet Chan, S. Sharma, J. Yang, R. Olivares  : DMRG
   Ulf Ekstrom                                   : XCFun DFT Library
   Mihaly Kallay                                 : mrcc  (arbitrary order and MRCC methods)
   Jiri Pittner, Ondrej Demel                    : Mk-CCSD
   Frank Weinhold                                : gennbo (NPA and NBO analysis)
   Christopher J. Cramer and Donald G. Truhlar   : smd solvation model
   Lars Goerigk                                  : TD-DFT with DH, B97 family of functionals
   V. Asgeirsson, H. Jonsson                     : NEB implementation
   FAccTs GmbH                                   : IRC, NEB, NEB-TS, DLPNO-Multilevel, CI-OPT
                                                   MM, QMMM, 2- and 3-layer-ONIOM, Crystal-QMMM,
                                                   LR-CPCM, SF, NACMEs, symmetry and pop. for TD-DFT,
                                                   nearIR, NL-DFT gradient (VV10), updates on ESD,
                                                   ML-optimized integration grids
   S Lehtola, MJT Oliveira, MAL Marques          : LibXC Library
   Liviu Ungur et al                             : ANISO software


 Your calculation uses the libint2 library for the computation of 2-el integrals
 For citations please refer to: http://libint.valeyev.net

 Your ORCA version has been built with support for libXC version: 5.1.0
 For citations please refer to: https://tddft.org/programs/libxc/

 This ORCA versions uses:
   CBLAS   interface :  Fast vector & matrix operations
   LAPACKE interface :  Fast linear algebra routines
   SCALAPACK package :  Parallel linear algebra routines
   Shared memory     :  Shared parallel matrices
   BLAS/LAPACK       :  OpenBLAS 0.3.15  USE64BITINT DYNAMIC_ARCH NO_AFFINITY Haswell SINGLE_THREADED
        Core in use  :  Haswell
   Copyright (c) 2011-2014, The OpenBLAS Project




***************************************
The coordinates will be read from file: C6H6.xyz
***************************************


Your calculation utilizes the geometrical counterpoise correction gCP
Please cite in your paper:
H.Kruse, S. Grimme J.Chem.Phys., 136, (2012), 154101 
   

Your calculation utilizes the atom-pairwise dispersion correction
with the Becke-Johnson damping scheme (D3BJ)
Cite in your paper:
S.Grimme, S.Ehrlich, L.Goerigk, J Comput Chem, (2011), 32, 1456–1465 
S.Grimme, J.Antony, S.Ehrlich and H.Krieg, J.Chem.Phys., 132, (2010), 154104 
   

Your calculation employs the composite approach PBEh-3c.
Please cite in your paper:
S. Grimme, J. G. Brandenburg, C. Bannwarth, A. Hansen J.Chem.Phys., 143, (2015), 054107 
   

================================================================================

----- Orbital basis set information -----
Your calculation utilizes the basis: def2-mSVP

----- AuxJ basis set information -----
Your calculation utilizes the auxiliary basis: def2/J
   F. Weigend, Phys. Chem. Chem. Phys. 8, 1057 (2006).

================================================================================
                                        WARNINGS
                       Please study these warnings very carefully!
================================================================================


INFO   : the flag for use of the SHARK integral package has been found!

================================================================================
                                       INPUT FILE
================================================================================
NAME = pbeh-3c.inp
|  1> ! PBEh-3c def2/J TightSCF DefGrid3
|  2> 
|  3> %maxcore 60000
|  4> 
|  5> %pal
|  6> nprocs 4
|  7> end
|  8> 
|  9> *xyzfile 0 1 C6H6.xyz
| 10> 
| 11>                          ****END OF INPUT****
================================================================================

                       ****************************
                       * Single Point Calculation *
                       ****************************

---------------------------------
CARTESIAN COORDINATES (ANGSTROEM)
---------------------------------
  C     -1.198802    0.692129    0.000000
  C     -1.198802   -0.692129    0.000000
  C      0.000000   -1.384254    0.000000
  C      1.198802   -0.692129    0.000000
  C      1.198802    0.692129    0.000000
  C      0.000000    1.384254    0.000000
  H     -2.133155   -1.231578    0.000000
  H      0.000000   -2.463152    0.000000
  H      2.133155   -1.231578    0.000000
  H      2.133155    1.231578    0.000000
  H      0.000000    2.463152    0.000000
  H     -2.133155    1.231578    0.000000

----------------------------
CARTESIAN COORDINATES (A.U.)
----------------------------
  NO LB      ZA    FRAG     MASS         X           Y           Z
   0 C     6.0000    0    12.011   -2.265408    1.307934    0.000000
   1 C     6.0000    0    12.011   -2.265408   -1.307934    0.000000
   2 C     6.0000    0    12.011    0.000000   -2.615861    0.000000
   3 C     6.0000    0    12.011    2.265408   -1.307934    0.000000
   4 C     6.0000    0    12.011    2.265408    1.307934    0.000000
   5 C     6.0000    0    12.011    0.000000    2.615861    0.000000
   6 H     1.0000    0     1.008   -4.031079   -2.327345    0.000000
   7 H     1.0000    0     1.008    0.000000   -4.654682    0.000000
   8 H     1.0000    0     1.008    4.031079   -2.327345    0.000000
   9 H     1.0000    0     1.008    4.031079    2.327345    0.000000
  10 H     1.0000    0     1.008    0.000000    4.654682    0.000000
  11 H     1.0000    0     1.008   -4.031079    2.327345    0.000000

--------------------------------
INTERNAL COORDINATES (ANGSTROEM)
--------------------------------
 C      0   0   0     0.000000000000     0.00000000     0.00000000
 C      1   0   0     1.384257200000     0.00000000     0.00000000
 C      2   1   0     1.384255982521   119.99987137     0.00000000
 C      3   2   1     1.384255982521   120.00025725     0.00000000
 C      4   3   2     1.384257200000   119.99987137     0.00000000
 C      1   2   3     1.384255982521   119.99987137     0.00000000
 H      2   1   3     1.078897601090   120.00002450   180.00000085
 H      3   2   1     1.078897900000   119.99987137   180.00000085
 H      4   3   2     1.078897601090   120.00010413   180.00000085
 H      5   4   3     1.078897601090   120.00002450   180.00000085
 H      6   1   2     1.078897900000   119.99987137   180.00000085
 H      1   2   3     1.078897601090   120.00002450   180.00000085

---------------------------
INTERNAL COORDINATES (A.U.)
---------------------------
 C      0   0   0     0.000000000000     0.00000000     0.00000000
 C      1   0   0     2.615867006909     0.00000000     0.00000000
 C      2   1   0     2.615864706207   119.99987137     0.00000000
 C      3   2   1     2.615864706207   120.00025725     0.00000000
 C      4   3   2     2.615867006909   119.99987137     0.00000000
 C      1   2   3     2.615864706207   119.99987137     0.00000000
 H      2   1   3     2.038820992604   120.00002450   180.00000085
 H      3   2   1     2.038821557463   119.99987137   180.00000085
 H      4   3   2     2.038820992604   120.00010413   180.00000085
 H      5   4   3     2.038820992604   120.00002450   180.00000085
 H      6   1   2     2.038821557463   119.99987137   180.00000085
 H      1   2   3     2.038820992604   120.00002450   180.00000085

---------------------
BASIS SET INFORMATION
---------------------
There are 2 groups of distinct atoms

 Group   1 Type C   : 8s4p1d contracted to 4s2p1d pattern {5111/31/1}
 Group   2 Type H   : 4s contracted to 2s pattern {31}

Atom   0C    basis set group =>   1
Atom   1C    basis set group =>   1
Atom   2C    basis set group =>   1
Atom   3C    basis set group =>   1
Atom   4C    basis set group =>   1
Atom   5C    basis set group =>   1
Atom   6H    basis set group =>   2
Atom   7H    basis set group =>   2
Atom   8H    basis set group =>   2
Atom   9H    basis set group =>   2
Atom  10H    basis set group =>   2
Atom  11H    basis set group =>   2
---------------------------------
AUXILIARY/J BASIS SET INFORMATION
---------------------------------
There are 2 groups of distinct atoms

 Group   1 Type C   : 12s5p4d2f1g contracted to 6s4p3d1f1g pattern {711111/2111/211/2/1}
 Group   2 Type H   : 5s2p1d contracted to 3s1p1d pattern {311/2/1}

Atom   0C    basis set group =>   1
Atom   1C    basis set group =>   1
Atom   2C    basis set group =>   1
Atom   3C    basis set group =>   1
Atom   4C    basis set group =>   1
Atom   5C    basis set group =>   1
Atom   6H    basis set group =>   2
Atom   7H    basis set group =>   2
Atom   8H    basis set group =>   2
Atom   9H    basis set group =>   2
Atom  10H    basis set group =>   2
Atom  11H    basis set group =>   2


           ************************************************************
           *        Program running with 4 parallel MPI-processes     *
           *              working on a common directory               *
           ************************************************************
------------------------------------------------------------------------------
                           ORCA GTO INTEGRAL CALCULATION
                           -- RI-GTO INTEGRALS CHOSEN --
------------------------------------------------------------------------------
------------------------------------------------------------------------------
                   ___                                                        
                  /   \      - P O W E R E D   B Y -                         
                 /     \                                                     
                 |  |  |   _    _      __       _____    __    __             
                 |  |  |  | |  | |    /  \     |  _  \  |  |  /  |          
                  \  \/   | |  | |   /    \    | | | |  |  | /  /          
                 / \  \   | |__| |  /  /\  \   | |_| |  |  |/  /          
                |  |  |   |  __  | /  /__\  \  |    /   |      \           
                |  |  |   | |  | | |   __   |  |    \   |  |\   \          
                \     /   | |  | | |  |  |  |  | |\  \  |  | \   \       
                 \___/    |_|  |_| |__|  |__|  |_| \__\ |__|  \__/        
                                                                              
                      - O R C A' S   B I G   F R I E N D -                    
                                      &                                       
                       - I N T E G R A L  F E E D E R -                       
                                                                              
 v1 FN, 2020, v2 2021                                                         
------------------------------------------------------------------------------


Reading SHARK input file pbeh-3c.SHARKINP.tmp ... ok
----------------------
SHARK INTEGRAL PACKAGE
----------------------

Number of atoms                             ...     12
Number of basis functions                   ...    102
Number of shells                            ...     54
Maximum angular momentum                    ...      2
Integral batch strategy                     ... SHARK/LIBINT Hybrid
RI-J (if used) integral strategy            ... SPLIT-RIJ (Revised 2003 algorithm where possible)
Printlevel                                  ...      1
Contraction scheme used                     ... SEGMENTED contraction
Coulomb Range Separation                    ... NOT USED
Exchange Range Separation                   ... NOT USED
Finite Nucleus Model                        ... NOT USED
Auxiliary Coulomb fitting basis             ... AVAILABLE
   # of basis functions in Aux-J            ...    360
   # of shells in Aux-J                     ...    120
   Maximum angular momentum in Aux-J        ...      4
Auxiliary J/K fitting basis                 ... NOT available
Auxiliary Correlation fitting basis         ... NOT available
Auxiliary 'external' fitting basis          ... NOT available
Integral threshold                          ...     2.500000e-11
Primitive cut-off                           ...     2.500000e-12
Primitive pair pre-selection threshold      ...     2.500000e-12

Calculating pre-screening integrals         ... done (  0.1 sec) Dimension = 54
Organizing shell pair data                  ... done (  0.1 sec)
Shell pair information
Total number of shell pairs                 ...      1485
Shell pairs after pre-screening             ...      1428
Total number of primitive shell pairs       ...      5349
Primitive shell pairs kept                  ...      3921
          la=0 lb=0:    609 shell pairs
          la=1 lb=0:    432 shell pairs
          la=1 lb=1:     78 shell pairs
          la=2 lb=0:    216 shell pairs
          la=2 lb=1:     72 shell pairs
          la=2 lb=2:     21 shell pairs

Calculating one electron integrals          ... done (  0.1 sec)
Calculating RI/J V-Matrix + Cholesky decomp.... done (  0.4 sec)
Calculating Nuclear repulsion               ... done (  0.0 sec) ENN=    204.957759944352 Eh

SHARK setup successfully completed in   1.2 seconds

Maximum memory used throughout the entire GTOINT-calculation: 10.2 MB


           ************************************************************
           *        Program running with 4 parallel MPI-processes     *
           *              working on a common directory               *
           ************************************************************
-------------------------------------------------------------------------------
                                 ORCA SCF
-------------------------------------------------------------------------------

------------
SCF SETTINGS
------------
Hamiltonian:
 Density Functional     Method          .... DFT(GTOs)
 Exchange Functional    Exchange        .... PBE
   PBE kappa parameter   XKappa         ....  1.024500
   PBE mue parameter    XMuePBE         ....  0.123457
 Correlation Functional Correlation     .... PBE
   PBE beta parameter  CBetaPBE         ....  0.030000
 LDA part of GGA corr.  LDAOpt          .... PW91-LDA
 Gradients option       PostSCFGGA      .... off
 Hybrid DFT is turned on
   Fraction HF Exchange ScalHFX         ....  0.420000
   Scaling of DF-GGA-X  ScalDFX         ....  0.580000
   Scaling of DF-GGA-C  ScalDFC         ....  1.000000
   Scaling of DF-LDA-C  ScalLDAC        ....  1.000000
   Perturbative correction              ....  0.000000
   Density functional embedding theory  .... OFF
 RI-approximation to the Coulomb term is turned on
   Number of AuxJ basis functions       .... 360
   RIJ-ON(X) (HFX calculated with O(N)) .... on
   Number of AuxJ basis functions       .... 360
   RIJ-COSX (HFX calculated with COS-X)).... on


General Settings:
 Integral files         IntName         .... pbeh-3c
 Hartree-Fock type      HFTyp           .... RHF
 Total Charge           Charge          ....    0
 Multiplicity           Mult            ....    1
 Number of Electrons    NEL             ....   42
 Basis Dimension        Dim             ....  102
 Nuclear Repulsion      ENuc            ....    204.9577599444 Eh

Convergence Acceleration:
 DIIS                   CNVDIIS         .... on
   Start iteration      DIISMaxIt       ....    12
   Startup error        DIISStart       ....  0.200000
   # of expansion vecs  DIISMaxEq       ....     5
   Bias factor          DIISBfac        ....   1.050
   Max. coefficient     DIISMaxC        ....  10.000
 Trust-Rad. Augm. Hess. CNVTRAH         .... auto
   Auto Start mean grad. ratio tolernc. ....  1.125000
   Auto Start start iteration           ....    20
   Auto Start num. interpolation iter.  ....    10
   Max. Number of Micro iterations      ....    16
   Max. Number of Macro iterations      .... Maxiter - #DIIS iter
   Number of Davidson start vectors     ....     2
   Converg. threshold I  (grad. norm)   ....   1.000e-05
   Converg. threshold II (energy diff.) ....   1.000e-08
   Grad. Scal. Fac. for Micro threshold ....   0.100
   Minimum threshold for Micro iter.    ....   0.010
   NR start threshold (gradient norm)   ....   0.001
   Initial trust radius                 ....   0.400
   Minimum AH scaling param. (alpha)    ....   1.000
   Maximum AH scaling param. (alpha)    .... 1000.000
   Orbital update algorithm             .... Taylor
   White noise on init. David. guess    .... on
   Maximum white noise                  ....   0.010
   Quad. conv. algorithm                .... NR
   COSX micro iterations for RIJONX calc.... off
 SOSCF                  CNVSOSCF        .... on
   Start iteration      SOSCFMaxIt      ....   150
   Startup grad/error   SOSCFStart      ....  0.003300
 Level Shifting         CNVShift        .... on
   Level shift para.    LevelShift      ....    0.2500
   Turn off err/grad.   ShiftErr        ....    0.0010
 Zerner damping         CNVZerner       .... off
 Static damping         CNVDamp         .... on
   Fraction old density DampFac         ....    0.7000
   Max. Damping (<1)    DampMax         ....    0.9800
   Min. Damping (>=0)   DampMin         ....    0.0000
   Turn off err/grad.   DampErr         ....    0.1000
 Fernandez-Rico         CNVRico         .... off

SCF Procedure:
 Maximum # iterations   MaxIter         ....   125
 SCF integral mode      SCFMode         .... Direct
   Integral package                     .... SHARK and LIBINT hybrid scheme
 Reset frequency        DirectResetFreq ....    20
 Integral Threshold     Thresh          ....  2.500e-11 Eh
 Primitive CutOff       TCut            ....  2.500e-12 Eh

Convergence Tolerance:
 Convergence Check Mode ConvCheckMode   .... Total+1el-Energy
 Convergence forced     ConvForced      .... 0
 Energy Change          TolE            ....  1.000e-08 Eh
 1-El. energy change                    ....  1.000e-05 Eh
 Orbital Gradient       TolG            ....  1.000e-05
 Orbital Rotation angle TolX            ....  1.000e-05
 DIIS Error             TolErr          ....  5.000e-07


Diagonalization of the overlap matrix:
Smallest eigenvalue                        ... 4.649e-04
Time for diagonalization                   ...    0.003 sec
Threshold for overlap eigenvalues          ... 1.000e-08
Number of eigenvalues below threshold      ... 0
Time for construction of square roots      ...    0.131 sec
Total time needed                          ...    0.134 sec

--------------------------------
INITIAL GUESS: MINIMAL BASIS EHT
--------------------------------
The minimal basis has 36 functions
EHT matrix was diagonalized
Basis set overlap was calculated now projecting the orbitals
Using GuessMode=FMatrix for the initial guess
C*T matrix was formed
Effective Fockian was calculated
Effective Fockian was diagonalized
Initial density was built
                      ------------------
                      INITIAL GUESS DONE
                      ------------------
-------------------
DFT GRID GENERATION
-------------------

General Integration Accuracy     IntAcc      ... 4.959
Radial Grid Type                 RadialGrid  ... OptM3 with GC (2021)
Angular Grid (max. ang.)         AngularGrid ... 6 (Lebedev-590)
Angular grid pruning method      GridPruning ... 4 (adaptive)
Weight generation scheme         WeightScheme... Becke
Basis function cutoff            BFCut       ... 1.0000e-11
Integration weight cutoff        WCut        ... 1.0000e-14
Angular grids for H and He will be reduced by one unit
Partially contracted basis set               ... off
Rotationally invariant grid construction     ... off

Total number of grid points                  ...   138414
Total number of batches                      ...     2166
Average number of points per batch           ...       63
Average number of grid points per atom       ...    11534
Time for grid setup =    2.175 sec

--------------------
COSX GRID GENERATION
--------------------

GRIDX 1
-------
General Integration Accuracy     IntAcc      ... 4.020
Radial Grid Type                 RadialGrid  ... OptM3 with GC (2021)
Angular Grid (max. ang.)         AngularGrid ... 2 (Lebedev-110)
Angular grid pruning method      GridPruning ... 4 (adaptive)
Weight generation scheme         WeightScheme... Becke
Basis function cutoff            BFCut       ... 1.0000e-11
Integration weight cutoff        WCut        ... 1.0000e-14
Angular grids for H and He will be reduced by one unit
Partially contracted basis set               ... on
Rotationally invariant grid construction     ... off

Total number of grid points                  ...    15456
Total number of batches                      ...      248
Average number of points per batch           ...       62
Average number of grid points per atom       ...     1288
UseSFitting                                  ... on

GRIDX 2
-------
General Integration Accuracy     IntAcc      ... 4.338
Radial Grid Type                 RadialGrid  ... OptM3 with GC (2021)
Angular Grid (max. ang.)         AngularGrid ... 3 (Lebedev-194)
Angular grid pruning method      GridPruning ... 4 (adaptive)
Weight generation scheme         WeightScheme... Becke
Basis function cutoff            BFCut       ... 1.0000e-11
Integration weight cutoff        WCut        ... 1.0000e-14
Angular grids for H and He will be reduced by one unit
Partially contracted basis set               ... on
Rotationally invariant grid construction     ... off

Total number of grid points                  ...    34000
Total number of batches                      ...      536
Average number of points per batch           ...       63
Average number of grid points per atom       ...     2833
UseSFitting                                  ... on

GRIDX 3
-------
General Integration Accuracy     IntAcc      ... 4.871
Radial Grid Type                 RadialGrid  ... OptM3 with GC (2021)
Angular Grid (max. ang.)         AngularGrid ... 4 (Lebedev-302)
Angular grid pruning method      GridPruning ... 4 (adaptive)
Weight generation scheme         WeightScheme... Becke
Basis function cutoff            BFCut       ... 1.0000e-11
Integration weight cutoff        WCut        ... 1.0000e-14
Angular grids for H and He will be reduced by one unit
Partially contracted basis set               ... on
Rotationally invariant grid construction     ... off

Total number of grid points                  ...    65220
Total number of batches                      ...     1028
Average number of points per batch           ...       63
Average number of grid points per atom       ...     5435
UseSFitting                                  ... on

Time for X-Grid setup             =    2.658 sec

--------------
SCF ITERATIONS
--------------
ITER       Energy         Delta-E        Max-DP      RMS-DP      [F,P]     Damp
               ***  Starting incremental Fock matrix formation  ***
  0   -231.1413754981   0.000000000000 0.05672675  0.00425915  0.4189526 0.7000
  1   -231.3117990254  -0.170423527281 0.04096290  0.00314133  0.2958968 0.7000
  2   -231.4347927731  -0.122993747692 0.03009459  0.00232266  0.2078060 0.7000
                               ***Turning on DIIS***
  3   -231.5226869775  -0.087894204404 0.02227774  0.00171777  0.1459260 0.7000
  4   -231.5852188912  -0.062531913764 0.01776628  0.00135122  0.1024667 0.7000
  5   -231.6295750977  -0.044356206451 0.04432855  0.00335429  0.0718275 0.0000
                      *** Initiating the SOSCF procedure ***
                           *** Shutting down DIIS ***
                      *** Re-Reading the Fockian *** 
                      *** Removing any level shift *** 
ITER      Energy       Delta-E        Grad      Rot      Max-DP    RMS-DP
  6   -231.73537095  -0.1057958560  0.001877  0.001877  0.001863  0.000100
               *** Restarting incremental Fock matrix formation ***
  7   -231.73540076  -0.0000298059  0.000665  0.000754  0.000838  0.000037
  8   -231.73540509  -0.0000043299  0.000079  0.000134  0.000172  0.000010
  9   -231.73540522  -0.0000001277  0.000046  0.000039  0.000046  0.000003
 10   -231.73540525  -0.0000000308  0.000013  0.000015  0.000016  0.000001
                 **** Energy Check signals convergence ****
              ***Rediagonalizing the Fockian in SOSCF/NRSCF***

               *****************************************************
               *                     SUCCESS                       *
               *           SCF CONVERGED AFTER  11 CYCLES          *
               *****************************************************

Old exchange energy                            =    -13.962800194 Eh
New exchange energy                            =    -13.962784491 Eh
Exchange energy change after final integration =      0.000015703 Eh
Total energy after final integration           =   -231.735389548 Eh
Final COS-X integration done in                =     1.909 sec

----------------
TOTAL SCF ENERGY
----------------

Total Energy       :         -231.73538955 Eh           -6305.84053 eV

Components:
Nuclear Repulsion  :          204.95775994 Eh            5577.18419 eV
Electronic Energy  :         -436.69314949 Eh          -11883.02472 eV
One Electron Energy:         -716.87463418 Eh          -19507.15052 eV
Two Electron Energy:          280.18148468 Eh            7624.12580 eV
Max COSX asymmetry :            0.00000046 Eh               0.00001 eV

Virial components:
Potential Energy   :         -461.71972818 Eh          -12564.03255 eV
Kinetic Energy     :          229.98433863 Eh            6258.19201 eV
Virial Ratio       :            2.00761378


DFT components:
N(Alpha)           :       21.000000657388 electrons
N(Beta)            :       21.000000657388 electrons
N(Total)           :       42.000001314776 electrons
E(X)               :      -18.530901694231 Eh       
E(C)               :       -1.803506184539 Eh       
E(XC)              :      -20.334407878769 Eh       
DFET-embed. en.    :        0.000000000000 Eh       

---------------
SCF CONVERGENCE
---------------

  Last Energy change         ...   -3.1692e-09  Tolerance :   1.0000e-08
  Last MAX-Density change    ...    4.9960e-16  Tolerance :   1.0000e-07
  Last RMS-Density change    ...    4.0198e-17  Tolerance :   5.0000e-09
  Last Orbital Gradient      ...    1.1324e-06  Tolerance :   1.0000e-05
  Last Orbital Rotation      ...    1.5299e-06  Tolerance :   1.0000e-05

             **** THE GBW FILE WAS UPDATED (pbeh-3c.gbw) ****
             **** DENSITY pbeh-3c.scfp WAS UPDATED ****
             **** ENERGY FILE WAS UPDATED (pbeh-3c.en.tmp) ****
             **** THE GBW FILE WAS UPDATED (pbeh-3c.gbw) ****
             **** DENSITY pbeh-3c.scfp WAS UPDATED ****
----------------
ORBITAL ENERGIES
----------------

  NO   OCC          E(Eh)            E(eV) 
   0   2.0000     -10.445713      -284.2423 
   1   2.0000     -10.445470      -284.2357 
   2   2.0000     -10.445468      -284.2356 
   3   2.0000     -10.444811      -284.2178 
   4   2.0000     -10.444810      -284.2177 
   5   2.0000     -10.444561      -284.2109 
   6   2.0000      -0.957076       -26.0434 
   7   2.0000      -0.837987       -22.8028 
   8   2.0000      -0.837987       -22.8028 
   9   2.0000      -0.680277       -18.5113 
  10   2.0000      -0.680277       -18.5113 
  11   2.0000      -0.594832       -16.1862 
  12   2.0000      -0.524265       -14.2660 
  13   2.0000      -0.511197       -13.9104 
  14   2.0000      -0.482739       -13.1360 
  15   2.0000      -0.482738       -13.1360 
  16   2.0000      -0.424192       -11.5428 
  17   2.0000      -0.397965       -10.8292 
  18   2.0000      -0.397964       -10.8292 
  19   2.0000      -0.293758        -7.9936 
  20   2.0000      -0.293755        -7.9935 
  21   0.0000       0.021444         0.5835 
  22   0.0000       0.021445         0.5835 
  23   0.0000       0.141304         3.8451 
  24   0.0000       0.201260         5.4766 
  25   0.0000       0.202489         5.5100 
  26   0.0000       0.202493         5.5101 
  27   0.0000       0.226511         6.1637 
  28   0.0000       0.226515         6.1638 
  29   0.0000       0.257983         7.0201 
  30   0.0000       0.329405         8.9636 
  31   0.0000       0.329417         8.9639 
  32   0.0000       0.332963         9.0604 
  33   0.0000       0.332969         9.0605 
  34   0.0000       0.447475        12.1764 
  35   0.0000       0.518786        14.1169 
  36   0.0000       0.567810        15.4509 
  37   0.0000       0.587030        15.9739 
  38   0.0000       0.587037        15.9741 
  39   0.0000       0.597128        16.2487 
  40   0.0000       0.626012        17.0346 
  41   0.0000       0.626012        17.0347 
  42   0.0000       0.636673        17.3248 
  43   0.0000       0.636676        17.3248 
  44   0.0000       0.640308        17.4237 
  45   0.0000       0.657753        17.8984 
  46   0.0000       0.657759        17.8985 
  47   0.0000       0.690072        18.7778 
  48   0.0000       0.734399        19.9840 
  49   0.0000       0.748574        20.3697 
  50   0.0000       0.942928        25.6584 
  51   0.0000       0.942931        25.6585 
  52   0.0000       0.965922        26.2841 
  53   0.0000       0.965927        26.2842 
  54   0.0000       0.978017        26.6132 
  55   0.0000       1.044000        28.4087 
  56   0.0000       1.045625        28.4529 
  57   0.0000       1.045627        28.4530 
  58   0.0000       1.094676        29.7876 
  59   0.0000       1.094687        29.7880 
  60   0.0000       1.099738        29.9254 
  61   0.0000       1.099754        29.9258 
  62   0.0000       1.176960        32.0267 
  63   0.0000       1.302818        35.4515 
  64   0.0000       1.302823        35.4516 
  65   0.0000       1.306680        35.5566 
  66   0.0000       1.437182        39.1077 
  67   0.0000       1.541563        41.9481 
  68   0.0000       1.541564        41.9481 
  69   0.0000       1.568572        42.6830 
  70   0.0000       1.568573        42.6830 
  71   0.0000       1.588930        43.2370 
  72   0.0000       1.815409        49.3998 
  73   0.0000       1.824956        49.6596 
  74   0.0000       1.909044        51.9477 
  75   0.0000       2.069657        56.3182 
  76   0.0000       2.069660        56.3183 
  77   0.0000       2.153502        58.5998 
  78   0.0000       2.153505        58.5998 
  79   0.0000       2.209481        60.1230 
  80   0.0000       2.209488        60.1232 
  81   0.0000       2.210983        60.1639 
  82   0.0000       2.210984        60.1639 
  83   0.0000       2.383387        64.8553 
  84   0.0000       2.383392        64.8554 
  85   0.0000       2.385795        64.9208 
  86   0.0000       2.590586        70.4934 
  87   0.0000       2.590593        70.4936 
  88   0.0000       2.749923        74.8292 
  89   0.0000       2.755197        74.9727 
  90   0.0000       2.755198        74.9727 
  91   0.0000       2.812392        76.5291 
  92   0.0000       2.812395        76.5291 
  93   0.0000       2.849847        77.5483 
  94   0.0000       3.072513        83.6073 
  95   0.0000       3.482684        94.7686 
  96   0.0000      13.217992       359.6798 
  97   0.0000      13.639185       371.1411 
  98   0.0000      13.639190       371.1412 
  99   0.0000      14.127468       384.4279 
 100   0.0000      14.127478       384.4282 
 101   0.0000      14.577577       396.6760 

                    ********************************
                    * MULLIKEN POPULATION ANALYSIS *
                    ********************************

-----------------------
MULLIKEN ATOMIC CHARGES
-----------------------
   0 C :   -0.219008
   1 C :   -0.219007
   2 C :   -0.219019
   3 C :   -0.219007
   4 C :   -0.219008
   5 C :   -0.219019
   6 H :    0.219008
   7 H :    0.219019
   8 H :    0.219008
   9 H :    0.219008
  10 H :    0.219019
  11 H :    0.219008
Sum of atomic charges:   -0.0000000

--------------------------------
MULLIKEN REDUCED ORBITAL CHARGES
--------------------------------
  0 C s       :     3.241703  s :     3.241703
      pz      :     0.990634  p :     2.936990
      px      :     1.009095
      py      :     0.937262
      dz2     :     0.003859  d :     0.040315
      dxz     :     0.003510
      dyz     :     0.005854
      dx2y2   :     0.012391
      dxy     :     0.014702
  1 C s       :     3.241701  s :     3.241701
      pz      :     0.990634  p :     2.936990
      px      :     1.009095
      py      :     0.937262
      dz2     :     0.003859  d :     0.040315
      dxz     :     0.003510
      dyz     :     0.005854
      dx2y2   :     0.012391
      dxy     :     0.014702
  2 C s       :     3.241698  s :     3.241698
      pz      :     0.990643  p :     2.937006
      px      :     0.901322
      py      :     1.045042
      dz2     :     0.003859  d :     0.040315
      dxz     :     0.007026
      dyz     :     0.002337
      dx2y2   :     0.015858
      dxy     :     0.011235
  3 C s       :     3.241702  s :     3.241702
      pz      :     0.990634  p :     2.936990
      px      :     1.009095
      py      :     0.937262
      dz2     :     0.003859  d :     0.040315
      dxz     :     0.003510
      dyz     :     0.005854
      dx2y2   :     0.012391
      dxy     :     0.014702
  4 C s       :     3.241702  s :     3.241702
      pz      :     0.990634  p :     2.936990
      px      :     1.009095
      py      :     0.937262
      dz2     :     0.003859  d :     0.040315
      dxz     :     0.003510
      dyz     :     0.005854
      dx2y2   :     0.012391
      dxy     :     0.014702
  5 C s       :     3.241697  s :     3.241697
      pz      :     0.990643  p :     2.937006
      px      :     0.901322
      py      :     1.045042
      dz2     :     0.003859  d :     0.040315
      dxz     :     0.007026
      dyz     :     0.002337
      dx2y2   :     0.015858
      dxy     :     0.011235
  6 H s       :     0.780992  s :     0.780992
  7 H s       :     0.780981  s :     0.780981
  8 H s       :     0.780992  s :     0.780992
  9 H s       :     0.780992  s :     0.780992
 10 H s       :     0.780981  s :     0.780981
 11 H s       :     0.780992  s :     0.780992


                     *******************************
                     * LOEWDIN POPULATION ANALYSIS *
                     *******************************

----------------------
LOEWDIN ATOMIC CHARGES
----------------------
   0 C :   -0.135281
   1 C :   -0.135281
   2 C :   -0.135287
   3 C :   -0.135281
   4 C :   -0.135281
   5 C :   -0.135287
   6 H :    0.135283
   7 H :    0.135282
   8 H :    0.135283
   9 H :    0.135283
  10 H :    0.135282
  11 H :    0.135283

-------------------------------
LOEWDIN REDUCED ORBITAL CHARGES
-------------------------------
  0 C s       :     2.889196  s :     2.889196
      pz      :     0.981872  p :     3.154341
      px      :     1.082626
      py      :     1.089842
      dz2     :     0.006393  d :     0.091744
      dxz     :     0.006255
      dyz     :     0.011872
      dx2y2   :     0.031541
      dxy     :     0.035683
  1 C s       :     2.889196  s :     2.889196
      pz      :     0.981872  p :     3.154341
      px      :     1.082626
      py      :     1.089842
      dz2     :     0.006393  d :     0.091744
      dxz     :     0.006255
      dyz     :     0.011872
      dx2y2   :     0.031541
      dxy     :     0.035683
  2 C s       :     2.889197  s :     2.889197
      pz      :     0.981876  p :     3.154346
      px      :     1.093448
      py      :     1.079022
      dz2     :     0.006393  d :     0.091744
      dxz     :     0.014680
      dyz     :     0.003446
      dx2y2   :     0.037754
      dxy     :     0.029471
  3 C s       :     2.889196  s :     2.889196
      pz      :     0.981872  p :     3.154341
      px      :     1.082626
      py      :     1.089842
      dz2     :     0.006393  d :     0.091744
      dxz     :     0.006255
      dyz     :     0.011872
      dx2y2   :     0.031541
      dxy     :     0.035683
  4 C s       :     2.889196  s :     2.889196
      pz      :     0.981872  p :     3.154341
      px      :     1.082626
      py      :     1.089842
      dz2     :     0.006393  d :     0.091744
      dxz     :     0.006255
      dyz     :     0.011872
      dx2y2   :     0.031541
      dxy     :     0.035683
  5 C s       :     2.889197  s :     2.889197
      pz      :     0.981876  p :     3.154346
      px      :     1.093448
      py      :     1.079022
      dz2     :     0.006393  d :     0.091744
      dxz     :     0.014680
      dyz     :     0.003446
      dx2y2   :     0.037754
      dxy     :     0.029471
  6 H s       :     0.864717  s :     0.864717
  7 H s       :     0.864718  s :     0.864718
  8 H s       :     0.864717  s :     0.864717
  9 H s       :     0.864717  s :     0.864717
 10 H s       :     0.864718  s :     0.864718
 11 H s       :     0.864717  s :     0.864717


                      *****************************
                      * MAYER POPULATION ANALYSIS *
                      *****************************

  NA   - Mulliken gross atomic population
  ZA   - Total nuclear charge
  QA   - Mulliken gross atomic charge
  VA   - Mayer's total valence
  BVA  - Mayer's bonded valence
  FA   - Mayer's free valence

  ATOM       NA         ZA         QA         VA         BVA        FA
  0 C      6.2190     6.0000    -0.2190     3.8214     3.8214    -0.0000
  1 C      6.2190     6.0000    -0.2190     3.8214     3.8214    -0.0000
  2 C      6.2190     6.0000    -0.2190     3.8214     3.8214    -0.0000
  3 C      6.2190     6.0000    -0.2190     3.8214     3.8214    -0.0000
  4 C      6.2190     6.0000    -0.2190     3.8214     3.8214    -0.0000
  5 C      6.2190     6.0000    -0.2190     3.8214     3.8214    -0.0000
  6 H      0.7810     1.0000     0.2190     0.9112     0.9112    -0.0000
  7 H      0.7810     1.0000     0.2190     0.9112     0.9112     0.0000
  8 H      0.7810     1.0000     0.2190     0.9112     0.9112    -0.0000
  9 H      0.7810     1.0000     0.2190     0.9112     0.9112    -0.0000
 10 H      0.7810     1.0000     0.2190     0.9112     0.9112    -0.0000
 11 H      0.7810     1.0000     0.2190     0.9112     0.9112    -0.0000

  Mayer bond orders larger than 0.100000
B(  0-C ,  1-C ) :   1.4286 B(  0-C ,  5-C ) :   1.4286 B(  0-C , 11-H ) :   0.9202 
B(  1-C ,  2-C ) :   1.4286 B(  1-C ,  6-H ) :   0.9202 B(  2-C ,  3-C ) :   1.4286 
B(  2-C ,  7-H ) :   0.9202 B(  3-C ,  4-C ) :   1.4286 B(  3-C ,  8-H ) :   0.9202 
B(  4-C ,  5-C ) :   1.4286 B(  4-C ,  9-H ) :   0.9202 B(  5-C , 10-H ) :   0.9202 


-------
TIMINGS
-------

Total SCF time: 0 days 0 hours 0 min 41 sec 

Total time                  ....      41.083 sec
Sum of individual times     ....      37.559 sec  ( 91.4%)

Fock matrix formation       ....      31.411 sec  ( 76.5%)
  Split-RI-J                ....       2.984 sec  (  9.5% of F)
  Chain of spheres X        ....      12.680 sec  ( 40.4% of F)
  XC integration            ....       9.468 sec  ( 30.1% of F)
    Basis function eval.    ....       2.128 sec  ( 22.5% of XC)
    Density eval.           ....       1.186 sec  ( 12.5% of XC)
    XC-Functional eval.     ....       0.942 sec  (  9.9% of XC)
    XC-Potential eval.      ....       0.799 sec  (  8.4% of XC)
Diagonalization             ....       0.069 sec  (  0.2%)
Density matrix formation    ....       0.003 sec  (  0.0%)
Population analysis         ....       0.497 sec  (  1.2%)
Initial guess               ....       0.007 sec  (  0.0%)
Orbital Transformation      ....       0.000 sec  (  0.0%)
Orbital Orthonormalization  ....       0.000 sec  (  0.0%)
DIIS solution               ....       0.568 sec  (  1.4%)
SOSCF solution              ....       0.171 sec  (  0.4%)
Grid generation             ....       4.833 sec  ( 11.8%)

Maximum memory used throughout the entire SCF-calculation: 50.8 MB


-------------------------------------------------------------------------------
                          DFT DISPERSION CORRECTION                            
                                                                               
                              DFTD3 V3.1  Rev 1                                
                          USING Becke-Johnson damping                          
-------------------------------------------------------------------------------
The PBEh-3c composite method is recognized
Using three-body term ABC
Active option DFTDOPT                   ...         4   

molecular C6(AA) [au] = 1656.715445 


            DFT-D V3
 parameters
 s6 scaling factor         :     1.0000 
 a1 scaling factor         :     0.4860 
 s8 scaling factor         :     0.0000 
 a2 scaling factor         :     4.5000 
 Damping factor alpha9(ATM):    16.0000 
 ad hoc parameters k1-k3   :    16.0000     1.3333    -4.0000 

 Edisp/kcal,au: -3.701585287376  -0.005898851006 
 E6   /kcal   :  -3.707466257 
 E8   /kcal   :  -0.000000000 
 E6(ABC)      :   0.005880969 
 % E8         :   0.000000000 
 % E6(ABC)    :  -0.158877047 

-------------------------   ----------------
Dispersion correction           -0.005898851
-------------------------   ----------------

------------------   -----------------
gCP correction             0.015372849
------------------   -----------------

-------------------------   --------------------
FINAL SINGLE POINT ENERGY      -231.725915549787
-------------------------   --------------------


                            ***************************************
                            *     ORCA property calculations      *
                            ***************************************

                                    ---------------------
                                    Active property flags
                                    ---------------------
   (+) Dipole Moment


------------------------------------------------------------------------------
                       ORCA ELECTRIC PROPERTIES CALCULATION
------------------------------------------------------------------------------

Dipole Moment Calculation                       ... on
Quadrupole Moment Calculation                   ... off
Polarizability Calculation                      ... off
GBWName                                         ... pbeh-3c.gbw
Electron density                                ... pbeh-3c.scfp
The origin for moment calculation is the CENTER OF MASS  = ( 0.000000,  0.000000  0.000000)

-------------
DIPOLE MOMENT
-------------
                                X             Y             Z
Electronic contribution:      0.00000       0.00000       0.00000
Nuclear contribution   :      0.00000       0.00000       0.00000
                        -----------------------------------------
Total Dipole Moment    :      0.00000       0.00000       0.00000
                        -----------------------------------------
Magnitude (a.u.)       :      0.00000
Magnitude (Debye)      :      0.00000



--------------------
Rotational spectrum 
--------------------
 
Rotational constants in cm-1:     0.192897     0.192896     0.096448 
Rotational constants in MHz :  5782.900460  5782.880115  2891.445144 

 Dipole components along the rotational axes: 
x,y,z [a.u.] :     0.000000     0.000000     0.000000 
x,y,z [Debye]:     0.000000     0.000000     0.000000 

 

Timings for individual modules:

Sum of individual times         ...       43.210 sec (=   0.720 min)
GTO integral calculation        ...        1.550 sec (=   0.026 min)   3.6 %
SCF iterations                  ...       41.660 sec (=   0.694 min)  96.4 %
                             ****ORCA TERMINATED NORMALLY****
TOTAL RUN TIME: 0 days 0 hours 0 minutes 43 seconds 990 msec
