
                                 *****************
                                 * O   R   C   A *
                                 *****************

                                            #,                                       
                                            ###                                      
                                            ####                                     
                                            #####                                    
                                            ######                                   
                                           ########,                                 
                                     ,,################,,,,,                         
                               ,,#################################,,                 
                          ,,##########################################,,             
                       ,#########################################, ''#####,          
                    ,#############################################,,   '####,        
                  ,##################################################,,,,####,       
                ,###########''''           ''''###############################       
              ,#####''   ,,,,##########,,,,          '''####'''          '####       
            ,##' ,,,,###########################,,,                        '##       
           ' ,,###''''                  '''############,,,                           
         ,,##''                                '''############,,,,        ,,,,,,###''
      ,#''                                            '''#######################'''  
     '                                                          ''''####''''         
             ,#######,   #######,   ,#######,      ##                                
            ,#'     '#,  ##    ##  ,#'     '#,    #''#        ######   ,####,        
            ##       ##  ##   ,#'  ##            #'  '#       #        #'  '#        
            ##       ##  #######   ##           ,######,      #####,   #    #        
            '#,     ,#'  ##    ##  '#,     ,#' ,#      #,         ##   #,  ,#        
             '#######'   ##     ##  '#######'  #'      '#     #####' # '####'        



                  #######################################################
                  #                        -***-                        #
                  #          Department of theory and spectroscopy      #
                  #    Directorship and core code : Frank Neese         #
                  #        Max Planck Institute fuer Kohlenforschung    #
                  #                Kaiser Wilhelm Platz 1               #
                  #                 D-45470 Muelheim/Ruhr               #
                  #                      Germany                        #
                  #                                                     #
                  #                  All rights reserved                #
                  #                        -***-                        #
                  #######################################################


                         Program Version 5.0.3 -  RELEASE  -


 With contributions from (in alphabetic order):
   Daniel Aravena         : Magnetic Suceptibility
   Michael Atanasov       : Ab Initio Ligand Field Theory (pilot matlab implementation)
   Alexander A. Auer      : GIAO ZORA, VPT2 properties, NMR spectrum
   Ute Becker             : Parallelization
   Giovanni Bistoni       : ED, misc. LED, open-shell LED, HFLD
   Martin Brehm           : Molecular dynamics
   Dmytro Bykov           : SCF Hessian
   Vijay G. Chilkuri      : MRCI spin determinant printing, contributions to CSF-ICE
   Dipayan Datta          : RHF DLPNO-CCSD density
   Achintya Kumar Dutta   : EOM-CC, STEOM-CC
   Dmitry Ganyushin       : Spin-Orbit,Spin-Spin,Magnetic field MRCI
   Miquel Garcia          : C-PCM and meta-GGA Hessian, CC/C-PCM, Gaussian charge scheme
   Yang Guo               : DLPNO-NEVPT2, F12-NEVPT2, CIM, IAO-localization
   Andreas Hansen         : Spin unrestricted coupled pair/coupled cluster methods
   Benjamin Helmich-Paris : MC-RPA, TRAH-SCF, COSX integrals
   Lee Huntington         : MR-EOM, pCC
   Robert Izsak           : Overlap fitted RIJCOSX, COSX-SCS-MP3, EOM
   Marcus Kettner         : VPT2
   Christian Kollmar      : KDIIS, OOCD, Brueckner-CCSD(T), CCSD density, CASPT2, CASPT2-K
   Simone Kossmann        : Meta GGA functionals, TD-DFT gradient, OOMP2, MP2 Hessian
   Martin Krupicka        : Initial AUTO-CI
   Lucas Lang             : DCDCAS
   Marvin Lechner         : AUTO-CI (C++ implementation), FIC-MRCC
   Dagmar Lenk            : GEPOL surface, SMD
   Dimitrios Liakos       : Extrapolation schemes; Compound Job, initial MDCI parallelization
   Dimitrios Manganas     : Further ROCIS development; embedding schemes
   Dimitrios Pantazis     : SARC Basis sets
   Anastasios Papadopoulos: AUTO-CI, single reference methods and gradients
   Taras Petrenko         : DFT Hessian,TD-DFT gradient, ASA, ECA, R-Raman, ABS, FL, XAS/XES, NRVS
   Peter Pinski           : DLPNO-MP2, DLPNO-MP2 Gradient
   Christoph Reimann      : Effective Core Potentials
   Marius Retegan         : Local ZFS, SOC
   Christoph Riplinger    : Optimizer, TS searches, QM/MM, DLPNO-CCSD(T), (RO)-DLPNO pert. Triples
   Tobias Risthaus        : Range-separated hybrids, TD-DFT gradient, RPA, STAB
   Michael Roemelt        : Original ROCIS implementation
   Masaaki Saitow         : Open-shell DLPNO-CCSD energy and density
   Barbara Sandhoefer     : DKH picture change effects
   Avijit Sen             : IP-ROCIS
   Kantharuban Sivalingam : CASSCF convergence, NEVPT2, FIC-MRCI
   Bernardo de Souza      : ESD, SOC TD-DFT
   Georgi Stoychev        : AutoAux, RI-MP2 NMR, DLPNO-MP2 response
   Willem Van den Heuvel  : Paramagnetic NMR
   Boris Wezisla          : Elementary symmetry handling
   Frank Wennmohs         : Technical directorship


 We gratefully acknowledge several colleagues who have allowed us to
 interface, adapt or use parts of their codes:
   Stefan Grimme, W. Hujo, H. Kruse, P. Pracht,  : VdW corrections, initial TS optimization,
                  C. Bannwarth, S. Ehlert          DFT functionals, gCP, sTDA/sTD-DF
   Ed Valeev, F. Pavosevic, A. Kumar             : LibInt (2-el integral package), F12 methods
   Garnet Chan, S. Sharma, J. Yang, R. Olivares  : DMRG
   Ulf Ekstrom                                   : XCFun DFT Library
   Mihaly Kallay                                 : mrcc  (arbitrary order and MRCC methods)
   Jiri Pittner, Ondrej Demel                    : Mk-CCSD
   Frank Weinhold                                : gennbo (NPA and NBO analysis)
   Christopher J. Cramer and Donald G. Truhlar   : smd solvation model
   Lars Goerigk                                  : TD-DFT with DH, B97 family of functionals
   V. Asgeirsson, H. Jonsson                     : NEB implementation
   FAccTs GmbH                                   : IRC, NEB, NEB-TS, DLPNO-Multilevel, CI-OPT
                                                   MM, QMMM, 2- and 3-layer-ONIOM, Crystal-QMMM,
                                                   LR-CPCM, SF, NACMEs, symmetry and pop. for TD-DFT,
                                                   nearIR, NL-DFT gradient (VV10), updates on ESD,
                                                   ML-optimized integration grids
   S Lehtola, MJT Oliveira, MAL Marques          : LibXC Library
   Liviu Ungur et al                             : ANISO software


 Your calculation uses the libint2 library for the computation of 2-el integrals
 For citations please refer to: http://libint.valeyev.net

 Your ORCA version has been built with support for libXC version: 5.1.0
 For citations please refer to: https://tddft.org/programs/libxc/

 This ORCA versions uses:
   CBLAS   interface :  Fast vector & matrix operations
   LAPACKE interface :  Fast linear algebra routines
   SCALAPACK package :  Parallel linear algebra routines
   Shared memory     :  Shared parallel matrices
   BLAS/LAPACK       :  OpenBLAS 0.3.15  USE64BITINT DYNAMIC_ARCH NO_AFFINITY Haswell SINGLE_THREADED
        Core in use  :  Haswell
   Copyright (c) 2011-2014, The OpenBLAS Project




***************************************
The coordinates will be read from file: alme3.xyz
***************************************


Your calculation utilizes the geometrical counterpoise correction gCP
Please cite in your paper:
H.Kruse, S. Grimme J.Chem.Phys., 136, (2012), 154101 
   

Your calculation utilizes the atom-pairwise dispersion correction
with the Becke-Johnson damping scheme (D3BJ)
Cite in your paper:
S.Grimme, S.Ehrlich, L.Goerigk, J Comput Chem, (2011), 32, 1456–1465 
S.Grimme, J.Antony, S.Ehrlich and H.Krieg, J.Chem.Phys., 132, (2010), 154104 
   

Your calculation employs the composite approach PBEh-3c.
Please cite in your paper:
S. Grimme, J. G. Brandenburg, C. Bannwarth, A. Hansen J.Chem.Phys., 143, (2015), 054107 
   

================================================================================

----- Orbital basis set information -----
Your calculation utilizes the basis: def2-mSVP

----- AuxJ basis set information -----
Your calculation utilizes the auxiliary basis: def2/J
   F. Weigend, Phys. Chem. Chem. Phys. 8, 1057 (2006).

================================================================================
                                        WARNINGS
                       Please study these warnings very carefully!
================================================================================


INFO   : the flag for use of the SHARK integral package has been found!

================================================================================
                                       INPUT FILE
================================================================================
NAME = pbeh-3c.inp
|  1> ! PBEh-3c def2/J TightSCF DefGrid3
|  2> 
|  3> %maxcore 60000
|  4> 
|  5> %pal
|  6> nprocs 4
|  7> end
|  8> 
|  9> *xyzfile 0 1 alme3.xyz
| 10> 
| 11>                          ****END OF INPUT****
================================================================================

                       ****************************
                       * Single Point Calculation *
                       ****************************

---------------------------------
CARTESIAN COORDINATES (ANGSTROEM)
---------------------------------
  C      0.000000    1.972993    0.000000
  Al     0.000000    0.000000    0.000000
  C      1.708662   -0.986496    0.000000
  C     -1.708662   -0.986496    0.000000
  H      0.999872    2.408131    0.000000
  H     -0.530619    2.361904    0.873534
  H     -0.530619    2.361904   -0.873534
  H      2.310779   -0.721423   -0.873534
  H      2.310779   -0.721423    0.873534
  H      1.585567   -2.069980    0.000000
  H     -2.585439   -0.338151    0.000000
  H     -1.780160   -1.640482    0.873534
  H     -1.780160   -1.640482   -0.873534

----------------------------
CARTESIAN COORDINATES (A.U.)
----------------------------
  NO LB      ZA    FRAG     MASS         X           Y           Z
   0 C     6.0000    0    12.011    0.000000    3.728416    0.000000
   1 Al   13.0000    0    26.982    0.000000    0.000000    0.000000
   2 C     6.0000    0    12.011    3.228903   -1.864207    0.000000
   3 C     6.0000    0    12.011   -3.228903   -1.864207    0.000000
   4 H     1.0000    0     1.008    1.889484    4.550708    0.000000
   5 H     1.0000    0     1.008   -1.002725    4.463352    1.650740
   6 H     1.0000    0     1.008   -1.002725    4.463352   -1.650740
   7 H     1.0000    0     1.008    4.366739   -1.363292   -1.650740
   8 H     1.0000    0     1.008    4.366739   -1.363292    1.650740
   9 H     1.0000    0     1.008    2.996287   -3.911695    0.000000
  10 H     1.0000    0     1.008   -4.885771   -0.639013    0.000000
  11 H     1.0000    0     1.008   -3.364015   -3.100061    1.650740
  12 H     1.0000    0     1.008   -3.364015   -3.100061   -1.650740

--------------------------------
INTERNAL COORDINATES (ANGSTROEM)
--------------------------------
 C      0   0   0     0.000000000000     0.00000000     0.00000000
 Al     1   0   0     1.972992800000     0.00000000     0.00000000
 C      2   1   0     1.972992611879   119.99998974     0.00000000
 C      2   1   3     1.972992611879   119.99998974   180.00000000
 H      1   2   3     1.090453527416   113.51837418     0.00000000
 H      1   2   3     1.093558303673   110.83255726   238.72385112
 H      1   2   3     1.093558303673   110.83255726   121.27614888
 H      3   2   1     1.093558380263   110.83261889   301.27611689
 H      3   2   1     1.093558380263   110.83261889    58.72388311
 H      3   2   1     1.090453914929   113.51838674   180.00000000
 H      4   2   1     1.090453562238   113.51841624     0.00000000
 H      4   2   1     1.093558867118   110.83259869   238.72382846
 H      4   2   1     1.093558867118   110.83259869   121.27617154

---------------------------
INTERNAL COORDINATES (A.U.)
---------------------------
 C      0   0   0     0.000000000000     0.00000000     0.00000000
 Al     1   0   0     3.728416056198     0.00000000     0.00000000
 C      2   1   0     3.728415700701   119.99998974     0.00000000
 C      2   1   3     3.728415700701   119.99998974   180.00000000
 H      1   2   3     2.060658528584   113.51837418     0.00000000
 H      1   2   3     2.066525705417   110.83255726   238.72385112
 H      1   2   3     2.066525705417   110.83255726   121.27614888
 H      3   2   1     2.066525850152   110.83261889   301.27611689
 H      3   2   1     2.066525850152   110.83261889    58.72388311
 H      3   2   1     2.060659260878   113.51838674   180.00000000
 H      4   2   1     2.060658594390   113.51841624     0.00000000
 H      4   2   1     2.066526770174   110.83259869   238.72382846
 H      4   2   1     2.066526770174   110.83259869   121.27617154

---------------------
BASIS SET INFORMATION
---------------------
There are 3 groups of distinct atoms

 Group   1 Type C   : 8s4p1d contracted to 4s2p1d pattern {5111/31/1}
 Group   2 Type Al  : 10s7p1d contracted to 4s3p1d pattern {5311/511/1}
 Group   3 Type H   : 4s contracted to 2s pattern {31}

Atom   0C    basis set group =>   1
Atom   1Al   basis set group =>   2
Atom   2C    basis set group =>   1
Atom   3C    basis set group =>   1
Atom   4H    basis set group =>   3
Atom   5H    basis set group =>   3
Atom   6H    basis set group =>   3
Atom   7H    basis set group =>   3
Atom   8H    basis set group =>   3
Atom   9H    basis set group =>   3
Atom  10H    basis set group =>   3
Atom  11H    basis set group =>   3
Atom  12H    basis set group =>   3
---------------------------------
AUXILIARY/J BASIS SET INFORMATION
---------------------------------
There are 3 groups of distinct atoms

 Group   1 Type C   : 12s5p4d2f1g contracted to 6s4p3d1f1g pattern {711111/2111/211/2/1}
 Group   2 Type Al  : 14s5p5d2f1g contracted to 8s4p3d1f1g pattern {71111111/2111/311/2/1}
 Group   3 Type H   : 5s2p1d contracted to 3s1p1d pattern {311/2/1}

Atom   0C    basis set group =>   1
Atom   1Al   basis set group =>   2
Atom   2C    basis set group =>   1
Atom   3C    basis set group =>   1
Atom   4H    basis set group =>   3
Atom   5H    basis set group =>   3
Atom   6H    basis set group =>   3
Atom   7H    basis set group =>   3
Atom   8H    basis set group =>   3
Atom   9H    basis set group =>   3
Atom  10H    basis set group =>   3
Atom  11H    basis set group =>   3
Atom  12H    basis set group =>   3


           ************************************************************
           *        Program running with 4 parallel MPI-processes     *
           *              working on a common directory               *
           ************************************************************
------------------------------------------------------------------------------
                           ORCA GTO INTEGRAL CALCULATION
                           -- RI-GTO INTEGRALS CHOSEN --
------------------------------------------------------------------------------
------------------------------------------------------------------------------
                   ___                                                        
                  /   \      - P O W E R E D   B Y -                         
                 /     \                                                     
                 |  |  |   _    _      __       _____    __    __             
                 |  |  |  | |  | |    /  \     |  _  \  |  |  /  |          
                  \  \/   | |  | |   /    \    | | | |  |  | /  /          
                 / \  \   | |__| |  /  /\  \   | |_| |  |  |/  /          
                |  |  |   |  __  | /  /__\  \  |    /   |      \           
                |  |  |   | |  | | |   __   |  |    \   |  |\   \          
                \     /   | |  | | |  |  |  |  | |\  \  |  | \   \       
                 \___/    |_|  |_| |__|  |__|  |_| \__\ |__|  \__/        
                                                                              
                      - O R C A' S   B I G   F R I E N D -                    
                                      &                                       
                       - I N T E G R A L  F E E D E R -                       
                                                                              
 v1 FN, 2020, v2 2021                                                         
------------------------------------------------------------------------------


Reading SHARK input file pbeh-3c.SHARKINP.tmp ... ok
----------------------
SHARK INTEGRAL PACKAGE
----------------------

Number of atoms                             ...     13
Number of basis functions                   ...     81
Number of shells                            ...     47
Maximum angular momentum                    ...      2
Integral batch strategy                     ... SHARK/LIBINT Hybrid
RI-J (if used) integral strategy            ... SPLIT-RIJ (Revised 2003 algorithm where possible)
Printlevel                                  ...      1
Contraction scheme used                     ... SEGMENTED contraction
Coulomb Range Separation                    ... NOT USED
Exchange Range Separation                   ... NOT USED
Finite Nucleus Model                        ... NOT USED
Auxiliary Coulomb fitting basis             ... AVAILABLE
   # of basis functions in Aux-J            ...    297
   # of shells in Aux-J                     ...    107
   Maximum angular momentum in Aux-J        ...      4
Auxiliary J/K fitting basis                 ... NOT available
Auxiliary Correlation fitting basis         ... NOT available
Auxiliary 'external' fitting basis          ... NOT available
Integral threshold                          ...     2.500000e-11
Primitive cut-off                           ...     2.500000e-12
Primitive pair pre-selection threshold      ...     2.500000e-12

Calculating pre-screening integrals         ... done (  0.0 sec) Dimension = 47
Organizing shell pair data                  ... done (  0.2 sec)
Shell pair information
Total number of shell pairs                 ...      1128
Shell pairs after pre-screening             ...      1071
Total number of primitive shell pairs       ...      4460
Primitive shell pairs kept                  ...      3044
          la=0 lb=0:    544 shell pairs
          la=1 lb=0:    306 shell pairs
          la=1 lb=1:     45 shell pairs
          la=2 lb=0:    130 shell pairs
          la=2 lb=1:     36 shell pairs
          la=2 lb=2:     10 shell pairs

Calculating one electron integrals          ... done (  0.0 sec)
Calculating RI/J V-Matrix + Cholesky decomp.... done (  0.4 sec)
Calculating Nuclear repulsion               ... done (  0.2 sec) ENN=    150.427802182579 Eh

SHARK setup successfully completed in   1.9 seconds

Maximum memory used throughout the entire GTOINT-calculation: 9.8 MB


           ************************************************************
           *        Program running with 4 parallel MPI-processes     *
           *              working on a common directory               *
           ************************************************************
-------------------------------------------------------------------------------
                                 ORCA SCF
-------------------------------------------------------------------------------

------------
SCF SETTINGS
------------
Hamiltonian:
 Density Functional     Method          .... DFT(GTOs)
 Exchange Functional    Exchange        .... PBE
   PBE kappa parameter   XKappa         ....  1.024500
   PBE mue parameter    XMuePBE         ....  0.123457
 Correlation Functional Correlation     .... PBE
   PBE beta parameter  CBetaPBE         ....  0.030000
 LDA part of GGA corr.  LDAOpt          .... PW91-LDA
 Gradients option       PostSCFGGA      .... off
 Hybrid DFT is turned on
   Fraction HF Exchange ScalHFX         ....  0.420000
   Scaling of DF-GGA-X  ScalDFX         ....  0.580000
   Scaling of DF-GGA-C  ScalDFC         ....  1.000000
   Scaling of DF-LDA-C  ScalLDAC        ....  1.000000
   Perturbative correction              ....  0.000000
   Density functional embedding theory  .... OFF
 RI-approximation to the Coulomb term is turned on
   Number of AuxJ basis functions       .... 297
   RIJ-ON(X) (HFX calculated with O(N)) .... on
   Number of AuxJ basis functions       .... 297
   RIJ-COSX (HFX calculated with COS-X)).... on


General Settings:
 Integral files         IntName         .... pbeh-3c
 Hartree-Fock type      HFTyp           .... RHF
 Total Charge           Charge          ....    0
 Multiplicity           Mult            ....    1
 Number of Electrons    NEL             ....   40
 Basis Dimension        Dim             ....   81
 Nuclear Repulsion      ENuc            ....    150.4278021826 Eh

Convergence Acceleration:
 DIIS                   CNVDIIS         .... on
   Start iteration      DIISMaxIt       ....    12
   Startup error        DIISStart       ....  0.200000
   # of expansion vecs  DIISMaxEq       ....     5
   Bias factor          DIISBfac        ....   1.050
   Max. coefficient     DIISMaxC        ....  10.000
 Trust-Rad. Augm. Hess. CNVTRAH         .... auto
   Auto Start mean grad. ratio tolernc. ....  1.125000
   Auto Start start iteration           ....    20
   Auto Start num. interpolation iter.  ....    10
   Max. Number of Micro iterations      ....    16
   Max. Number of Macro iterations      .... Maxiter - #DIIS iter
   Number of Davidson start vectors     ....     2
   Converg. threshold I  (grad. norm)   ....   1.000e-05
   Converg. threshold II (energy diff.) ....   1.000e-08
   Grad. Scal. Fac. for Micro threshold ....   0.100
   Minimum threshold for Micro iter.    ....   0.010
   NR start threshold (gradient norm)   ....   0.001
   Initial trust radius                 ....   0.400
   Minimum AH scaling param. (alpha)    ....   1.000
   Maximum AH scaling param. (alpha)    .... 1000.000
   Orbital update algorithm             .... Taylor
   White noise on init. David. guess    .... on
   Maximum white noise                  ....   0.010
   Quad. conv. algorithm                .... NR
   COSX micro iterations for RIJONX calc.... off
 SOSCF                  CNVSOSCF        .... on
   Start iteration      SOSCFMaxIt      ....   150
   Startup grad/error   SOSCFStart      ....  0.003300
 Level Shifting         CNVShift        .... on
   Level shift para.    LevelShift      ....    0.2500
   Turn off err/grad.   ShiftErr        ....    0.0010
 Zerner damping         CNVZerner       .... off
 Static damping         CNVDamp         .... on
   Fraction old density DampFac         ....    0.7000
   Max. Damping (<1)    DampMax         ....    0.9800
   Min. Damping (>=0)   DampMin         ....    0.0000
   Turn off err/grad.   DampErr         ....    0.1000
 Fernandez-Rico         CNVRico         .... off

SCF Procedure:
 Maximum # iterations   MaxIter         ....   125
 SCF integral mode      SCFMode         .... Direct
   Integral package                     .... SHARK and LIBINT hybrid scheme
 Reset frequency        DirectResetFreq ....    20
 Integral Threshold     Thresh          ....  2.500e-11 Eh
 Primitive CutOff       TCut            ....  2.500e-12 Eh

Convergence Tolerance:
 Convergence Check Mode ConvCheckMode   .... Total+1el-Energy
 Convergence forced     ConvForced      .... 0
 Energy Change          TolE            ....  1.000e-08 Eh
 1-El. energy change                    ....  1.000e-05 Eh
 Orbital Gradient       TolG            ....  1.000e-05
 Orbital Rotation angle TolX            ....  1.000e-05
 DIIS Error             TolErr          ....  5.000e-07


Diagonalization of the overlap matrix:
Smallest eigenvalue                        ... 1.729e-02
Time for diagonalization                   ...    0.001 sec
Threshold for overlap eigenvalues          ... 1.000e-08
Number of eigenvalues below threshold      ... 0
Time for construction of square roots      ...    0.151 sec
Total time needed                          ...    0.196 sec

--------------------------------
INITIAL GUESS: MINIMAL BASIS EHT
--------------------------------
The minimal basis has 33 functions
EHT matrix was diagonalized
Basis set overlap was calculated now projecting the orbitals
Using GuessMode=FMatrix for the initial guess
C*T matrix was formed
Effective Fockian was calculated
Effective Fockian was diagonalized
Initial density was built
                      ------------------
                      INITIAL GUESS DONE
                      ------------------
-------------------
DFT GRID GENERATION
-------------------

General Integration Accuracy     IntAcc      ... 4.959
Radial Grid Type                 RadialGrid  ... OptM3 with GC (2021)
Angular Grid (max. ang.)         AngularGrid ... 6 (Lebedev-590)
Angular grid pruning method      GridPruning ... 4 (adaptive)
Weight generation scheme         WeightScheme... Becke
Basis function cutoff            BFCut       ... 1.0000e-11
Integration weight cutoff        WCut        ... 1.0000e-14
Angular grids for H and He will be reduced by one unit
Partially contracted basis set               ... off
Rotationally invariant grid construction     ... off

Total number of grid points                  ...   138850
Total number of batches                      ...     2177
Average number of points per batch           ...       63
Average number of grid points per atom       ...    10681
Time for grid setup =    2.133 sec

--------------------
COSX GRID GENERATION
--------------------

GRIDX 1
-------
General Integration Accuracy     IntAcc      ... 4.020
Radial Grid Type                 RadialGrid  ... OptM3 with GC (2021)
Angular Grid (max. ang.)         AngularGrid ... 2 (Lebedev-110)
Angular grid pruning method      GridPruning ... 4 (adaptive)
Weight generation scheme         WeightScheme... Becke
Basis function cutoff            BFCut       ... 1.0000e-11
Integration weight cutoff        WCut        ... 1.0000e-14
Angular grids for H and He will be reduced by one unit
Partially contracted basis set               ... on
Rotationally invariant grid construction     ... off

Total number of grid points                  ...    14434
Total number of batches                      ...      234
Average number of points per batch           ...       61
Average number of grid points per atom       ...     1110
UseSFitting                                  ... on

GRIDX 2
-------
General Integration Accuracy     IntAcc      ... 4.338
Radial Grid Type                 RadialGrid  ... OptM3 with GC (2021)
Angular Grid (max. ang.)         AngularGrid ... 3 (Lebedev-194)
Angular grid pruning method      GridPruning ... 4 (adaptive)
Weight generation scheme         WeightScheme... Becke
Basis function cutoff            BFCut       ... 1.0000e-11
Integration weight cutoff        WCut        ... 1.0000e-14
Angular grids for H and He will be reduced by one unit
Partially contracted basis set               ... on
Rotationally invariant grid construction     ... off

Total number of grid points                  ...    32128
Total number of batches                      ...      509
Average number of points per batch           ...       63
Average number of grid points per atom       ...     2471
UseSFitting                                  ... on

GRIDX 3
-------
General Integration Accuracy     IntAcc      ... 4.871
Radial Grid Type                 RadialGrid  ... OptM3 with GC (2021)
Angular Grid (max. ang.)         AngularGrid ... 4 (Lebedev-302)
Angular grid pruning method      GridPruning ... 4 (adaptive)
Weight generation scheme         WeightScheme... Becke
Basis function cutoff            BFCut       ... 1.0000e-11
Integration weight cutoff        WCut        ... 1.0000e-14
Angular grids for H and He will be reduced by one unit
Partially contracted basis set               ... on
Rotationally invariant grid construction     ... off

Total number of grid points                  ...    64338
Total number of batches                      ...     1012
Average number of points per batch           ...       63
Average number of grid points per atom       ...     4949
UseSFitting                                  ... on

Time for X-Grid setup             =    3.449 sec

--------------
SCF ITERATIONS
--------------
ITER       Energy         Delta-E        Max-DP      RMS-DP      [F,P]     Damp
               ***  Starting incremental Fock matrix formation  ***
  0   -361.0633670298   0.000000000000 0.10023424  0.00521974  0.3776058 0.7000
  1   -361.2300795448  -0.166712515031 0.07127399  0.00365694  0.2595139 0.7000
                               ***Turning on DIIS***
  2   -361.3417087758  -0.111629231012 0.05041594  0.00257797  0.1776976 0.7000
  3   -361.4188155591  -0.077106783330 0.05528547  0.00193226  0.1225113 0.7000
  4   -361.4730317254  -0.054216166268 0.15426632  0.00488023  0.0863502 0.0000
  5   -361.6015079541  -0.128476228675 0.00709026  0.00030552  0.0060968 0.0000
                      *** Initiating the SOSCF procedure ***
                           *** Shutting down DIIS ***
                      *** Re-Reading the Fockian *** 
                      *** Removing any level shift *** 
ITER      Energy       Delta-E        Grad      Rot      Max-DP    RMS-DP
  6   -361.60162880  -0.0001208488  0.000542  0.000542  0.003714  0.000102
               *** Restarting incremental Fock matrix formation ***
  7   -361.60164101  -0.0000122027  0.000236  0.000399  0.002482  0.000070
  8   -361.60164337  -0.0000023686  0.000088  0.000218  0.000543  0.000025
  9   -361.60164353  -0.0000001601  0.000050  0.000076  0.000246  0.000010
                  ***Gradient check signals convergence***
              ***Rediagonalizing the Fockian in SOSCF/NRSCF***

               *****************************************************
               *                     SUCCESS                       *
               *           SCF CONVERGED AFTER  10 CYCLES          *
               *****************************************************

Old exchange energy                            =    -15.499886732 Eh
New exchange energy                            =    -15.499896219 Eh
Exchange energy change after final integration =     -0.000009487 Eh
Total energy after final integration           =   -361.601653105 Eh
Final COS-X integration done in                =     2.336 sec

----------------
TOTAL SCF ENERGY
----------------

Total Energy       :         -361.60165310 Eh           -9839.68122 eV

Components:
Nuclear Repulsion  :          150.42780218 Eh            4093.34860 eV
Electronic Energy  :         -512.02945529 Eh          -13933.02982 eV
One Electron Energy:         -795.57301124 Eh          -21648.64223 eV
Two Electron Energy:          283.54355595 Eh            7715.61241 eV
Max COSX asymmetry :            0.00000123 Eh               0.00003 eV

Virial components:
Potential Energy   :         -721.57015389 Eh          -19634.92211 eV
Kinetic Energy     :          359.96850079 Eh            9795.24089 eV
Virial Ratio       :            2.00453693


DFT components:
N(Alpha)           :       19.999998790113 electrons
N(Beta)            :       19.999998790113 electrons
N(Total)           :       39.999997580227 electrons
E(X)               :      -20.578076346520 Eh       
E(C)               :       -1.752044858791 Eh       
E(XC)              :      -22.330121205311 Eh       
DFET-embed. en.    :        0.000000000000 Eh       

---------------
SCF CONVERGENCE
---------------

  Last Energy change         ...   -8.3666e-08  Tolerance :   1.0000e-08
  Last MAX-Density change    ...    5.3291e-15  Tolerance :   1.0000e-07
  Last RMS-Density change    ...    9.2259e-17  Tolerance :   5.0000e-09
  Last Orbital Gradient      ...    1.8129e-06  Tolerance :   1.0000e-05
  Last Orbital Rotation      ...    3.8505e-06  Tolerance :   1.0000e-05

             **** THE GBW FILE WAS UPDATED (pbeh-3c.gbw) ****
             **** DENSITY pbeh-3c.scfp WAS UPDATED ****
             **** ENERGY FILE WAS UPDATED (pbeh-3c.en.tmp) ****
             **** THE GBW FILE WAS UPDATED (pbeh-3c.gbw) ****
             **** DENSITY pbeh-3c.scfp WAS UPDATED ****
----------------
ORBITAL ENERGIES
----------------

  NO   OCC          E(Eh)            E(eV) 
   0   2.0000     -56.579204     -1539.5984 
   1   2.0000     -10.397435      -282.9286 
   2   2.0000     -10.397432      -282.9285 
   3   2.0000     -10.397431      -282.9285 
   4   2.0000      -4.316802      -117.4662 
   5   2.0000      -2.811085       -76.4935 
   6   2.0000      -2.802314       -76.2548 
   7   2.0000      -2.802314       -76.2548 
   8   2.0000      -0.755145       -20.5485 
   9   2.0000      -0.741354       -20.1733 
  10   2.0000      -0.741353       -20.1732 
  11   2.0000      -0.441339       -12.0094 
  12   2.0000      -0.441338       -12.0094 
  13   2.0000      -0.440654       -11.9908 
  14   2.0000      -0.431090       -11.7306 
  15   2.0000      -0.431088       -11.7305 
  16   2.0000      -0.425323       -11.5736 
  17   2.0000      -0.416385       -11.3304 
  18   2.0000      -0.308819        -8.4034 
  19   2.0000      -0.308819        -8.4034 
  20   0.0000       0.004730         0.1287 
  21   0.0000       0.049651         1.3511 
  22   0.0000       0.121358         3.3023 
  23   0.0000       0.121360         3.3024 
  24   0.0000       0.193487         5.2650 
  25   0.0000       0.201770         5.4904 
  26   0.0000       0.201773         5.4905 
  27   0.0000       0.203507         5.5377 
  28   0.0000       0.203509         5.5378 
  29   0.0000       0.213273         5.8035 
  30   0.0000       0.230736         6.2787 
  31   0.0000       0.282088         7.6760 
  32   0.0000       0.282089         7.6760 
  33   0.0000       0.323424         8.8008 
  34   0.0000       0.416061        11.3216 
  35   0.0000       0.458595        12.4790 
  36   0.0000       0.458607        12.4793 
  37   0.0000       0.482900        13.1404 
  38   0.0000       0.482902        13.1404 
  39   0.0000       0.514722        14.0063 
  40   0.0000       0.542182        14.7535 
  41   0.0000       0.542196        14.7539 
  42   0.0000       0.647054        17.6072 
  43   0.0000       0.652990        17.7688 
  44   0.0000       0.652994        17.7689 
  45   0.0000       0.665461        18.1081 
  46   0.0000       0.669576        18.2201 
  47   0.0000       0.669596        18.2206 
  48   0.0000       0.734434        19.9850 
  49   0.0000       0.882475        24.0134 
  50   0.0000       0.882478        24.0135 
  51   0.0000       1.031568        28.0704 
  52   0.0000       1.034627        28.1536 
  53   0.0000       1.034629        28.1537 
  54   0.0000       1.047340        28.4996 
  55   0.0000       1.068285        29.0695 
  56   0.0000       1.068286        29.0695 
  57   0.0000       1.114088        30.3159 
  58   0.0000       1.114089        30.3159 
  59   0.0000       1.139344        31.0031 
  60   0.0000       1.264400        34.4061 
  61   0.0000       1.268508        34.5179 
  62   0.0000       1.268521        34.5182 
  63   0.0000       1.744633        47.4739 
  64   0.0000       1.787334        48.6358 
  65   0.0000       1.833548        49.8934 
  66   0.0000       1.833551        49.8934 
  67   0.0000       1.872223        50.9458 
  68   0.0000       1.872225        50.9458 
  69   0.0000       2.116690        57.5981 
  70   0.0000       2.238163        60.9035 
  71   0.0000       2.238165        60.9036 
  72   0.0000       2.346286        63.8457 
  73   0.0000       2.346293        63.8459 
  74   0.0000       2.364291        64.3356 
  75   0.0000       2.370362        64.5008 
  76   0.0000       2.370365        64.5009 
  77   0.0000       2.379309        64.7443 
  78   0.0000      13.721551       373.3824 
  79   0.0000      13.721558       373.3826 
  80   0.0000      13.735312       373.7569 

                    ********************************
                    * MULLIKEN POPULATION ANALYSIS *
                    ********************************

-----------------------
MULLIKEN ATOMIC CHARGES
-----------------------
   0 C :   -1.049312
   1 Al:    1.062450
   2 C :   -1.049359
   3 C :   -1.049355
   4 H :    0.231876
   5 H :    0.231659
   6 H :    0.231659
   7 H :    0.231657
   8 H :    0.231657
   9 H :    0.231881
  10 H :    0.231870
  11 H :    0.231659
  12 H :    0.231659
Sum of atomic charges:   -0.0000000

--------------------------------
MULLIKEN REDUCED ORBITAL CHARGES
--------------------------------
  0 C s       :     3.443309  s :     3.443309
      pz      :     1.124450  p :     3.583642
      px      :     1.127068
      py      :     1.332124
      dz2     :     0.004757  d :     0.022361
      dxz     :     0.006634
      dyz     :     0.003498
      dx2y2   :     0.002538
      dxy     :     0.004935
  1 Als       :     4.856537  s :     4.856537
      pz      :     2.076572  p :     6.917818
      px      :     2.420628
      py      :     2.420618
      dz2     :     0.011896  d :     0.163195
      dxz     :     0.012968
      dyz     :     0.012968
      dx2y2   :     0.062680
      dxy     :     0.062684
  2 C s       :     3.443312  s :     3.443312
      pz      :     1.124439  p :     3.583687
      px      :     1.289600
      py      :     1.169647
      dz2     :     0.004757  d :     0.022361
      dxz     :     0.008454
      dyz     :     0.001676
      dx2y2   :     0.006310
      dxy     :     0.001163
  3 C s       :     3.443317  s :     3.443317
      pz      :     1.124454  p :     3.583677
      px      :     1.272199
      py      :     1.187024
      dz2     :     0.004757  d :     0.022361
      dxz     :     0.000108
      dyz     :     0.010023
      dx2y2   :     0.002361
      dxy     :     0.005112
  4 H s       :     0.768124  s :     0.768124
  5 H s       :     0.768341  s :     0.768341
  6 H s       :     0.768341  s :     0.768341
  7 H s       :     0.768343  s :     0.768343
  8 H s       :     0.768343  s :     0.768343
  9 H s       :     0.768119  s :     0.768119
 10 H s       :     0.768130  s :     0.768130
 11 H s       :     0.768341  s :     0.768341
 12 H s       :     0.768341  s :     0.768341


                     *******************************
                     * LOEWDIN POPULATION ANALYSIS *
                     *******************************

----------------------
LOEWDIN ATOMIC CHARGES
----------------------
   0 C :   -0.646803
   1 Al:    0.625237
   2 C :   -0.646816
   3 C :   -0.646811
   4 H :    0.143171
   5 H :    0.147613
   6 H :    0.147613
   7 H :    0.147612
   8 H :    0.147612
   9 H :    0.143174
  10 H :    0.143172
  11 H :    0.147613
  12 H :    0.147613

-------------------------------
LOEWDIN REDUCED ORBITAL CHARGES
-------------------------------
  0 C s       :     3.009290  s :     3.009290
      pz      :     1.127176  p :     3.600010
      px      :     1.129595
      py      :     1.343239
      dz2     :     0.008142  d :     0.037503
      dxz     :     0.010597
      dyz     :     0.005719
      dx2y2   :     0.004998
      dxy     :     0.008047
  1 Als       :     4.759170  s :     4.759170
      pz      :     2.115319  p :     7.314841
      px      :     2.599765
      py      :     2.599757
      dz2     :     0.021370  d :     0.300753
      dxz     :     0.022829
      dyz     :     0.022829
      dx2y2   :     0.116863
      dxy     :     0.116862
  2 C s       :     3.009290  s :     3.009290
      pz      :     1.127173  p :     3.600024
      px      :     1.297100
      py      :     1.175751
      dz2     :     0.008141  d :     0.037502
      dxz     :     0.013672
      dyz     :     0.002645
      dx2y2   :     0.010549
      dxy     :     0.002495
  3 C s       :     3.009292  s :     3.009292
      pz      :     1.127178  p :     3.600016
      px      :     1.282574
      py      :     1.190263
      dz2     :     0.008141  d :     0.037502
      dxz     :     0.000205
      dyz     :     0.016111
      dx2y2   :     0.004019
      dxy     :     0.009025
  4 H s       :     0.856829  s :     0.856829
  5 H s       :     0.852387  s :     0.852387
  6 H s       :     0.852387  s :     0.852387
  7 H s       :     0.852388  s :     0.852388
  8 H s       :     0.852388  s :     0.852388
  9 H s       :     0.856826  s :     0.856826
 10 H s       :     0.856828  s :     0.856828
 11 H s       :     0.852387  s :     0.852387
 12 H s       :     0.852387  s :     0.852387


                      *****************************
                      * MAYER POPULATION ANALYSIS *
                      *****************************

  NA   - Mulliken gross atomic population
  ZA   - Total nuclear charge
  QA   - Mulliken gross atomic charge
  VA   - Mayer's total valence
  BVA  - Mayer's bonded valence
  FA   - Mayer's free valence

  ATOM       NA         ZA         QA         VA         BVA        FA
  0 C      7.0493     6.0000    -1.0493     3.6238     3.6238    -0.0000
  1 Al    11.9376    13.0000     1.0624     2.6977     2.6977    -0.0000
  2 C      7.0494     6.0000    -1.0494     3.6237     3.6237    -0.0000
  3 C      7.0494     6.0000    -1.0494     3.6238     3.6238     0.0000
  4 H      0.7681     1.0000     0.2319     0.9058     0.9058    -0.0000
  5 H      0.7683     1.0000     0.2317     0.9083     0.9083     0.0000
  6 H      0.7683     1.0000     0.2317     0.9083     0.9083     0.0000
  7 H      0.7683     1.0000     0.2317     0.9083     0.9083     0.0000
  8 H      0.7683     1.0000     0.2317     0.9083     0.9083    -0.0000
  9 H      0.7681     1.0000     0.2319     0.9058     0.9058    -0.0000
 10 H      0.7681     1.0000     0.2319     0.9058     0.9058    -0.0000
 11 H      0.7683     1.0000     0.2317     0.9083     0.9083    -0.0000
 12 H      0.7683     1.0000     0.2317     0.9083     0.9083    -0.0000

  Mayer bond orders larger than 0.100000
B(  0-C ,  1-Al) :   0.8667 B(  0-C ,  4-H ) :   0.9116 B(  0-C ,  5-H ) :   0.9089 
B(  0-C ,  6-H ) :   0.9089 B(  1-Al,  2-C ) :   0.8667 B(  1-Al,  3-C ) :   0.8667 
B(  2-C ,  7-H ) :   0.9089 B(  2-C ,  8-H ) :   0.9089 B(  2-C ,  9-H ) :   0.9116 
B(  3-C , 10-H ) :   0.9116 B(  3-C , 11-H ) :   0.9089 B(  3-C , 12-H ) :   0.9089 


-------
TIMINGS
-------

Total SCF time: 0 days 0 hours 0 min 58 sec 

Total time                  ....      58.457 sec
Sum of individual times     ....      52.341 sec  ( 89.5%)

Fock matrix formation       ....      42.397 sec  ( 72.5%)
  Split-RI-J                ....       4.156 sec  (  9.8% of F)
  Chain of spheres X        ....      11.639 sec  ( 27.5% of F)
  XC integration            ....      13.481 sec  ( 31.8% of F)
    Basis function eval.    ....       1.432 sec  ( 10.6% of XC)
    Density eval.           ....       0.904 sec  (  6.7% of XC)
    XC-Functional eval.     ....       0.938 sec  (  7.0% of XC)
    XC-Potential eval.      ....       0.532 sec  (  3.9% of XC)
Diagonalization             ....       0.605 sec  (  1.0%)
Density matrix formation    ....       0.139 sec  (  0.2%)
Population analysis         ....       0.691 sec  (  1.2%)
Initial guess               ....       0.006 sec  (  0.0%)
Orbital Transformation      ....       0.000 sec  (  0.0%)
Orbital Orthonormalization  ....       0.000 sec  (  0.0%)
DIIS solution               ....       2.266 sec  (  3.9%)
SOSCF solution              ....       0.655 sec  (  1.1%)
Grid generation             ....       5.582 sec  (  9.5%)

Maximum memory used throughout the entire SCF-calculation: 49.6 MB


-------------------------------------------------------------------------------
                          DFT DISPERSION CORRECTION                            
                                                                               
                              DFTD3 V3.1  Rev 1                                
                          USING Becke-Johnson damping                          
-------------------------------------------------------------------------------
The PBEh-3c composite method is recognized
Using three-body term ABC
Active option DFTDOPT                   ...         4   

molecular C6(AA) [au] = 1657.999069 


            DFT-D V3
 parameters
 s6 scaling factor         :     1.0000 
 a1 scaling factor         :     0.4860 
 s8 scaling factor         :     0.0000 
 a2 scaling factor         :     4.5000 
 Damping factor alpha9(ATM):    16.0000 
 ad hoc parameters k1-k3   :    16.0000     1.3333    -4.0000 

 Edisp/kcal,au: -2.568832566099  -0.004093694834 
 E6   /kcal   :  -2.580705729 
 E8   /kcal   :  -0.000000000 
 E6(ABC)      :   0.011873163 
 % E8         :   0.000000000 
 % E6(ABC)    :  -0.462200721 

-------------------------   ----------------
Dispersion correction           -0.004093695
-------------------------   ----------------

------------------   -----------------
gCP correction             0.008979311
------------------   -----------------

-------------------------   --------------------
FINAL SINGLE POINT ENERGY      -361.596767489004
-------------------------   --------------------


                            ***************************************
                            *     ORCA property calculations      *
                            ***************************************

                                    ---------------------
                                    Active property flags
                                    ---------------------
   (+) Dipole Moment


------------------------------------------------------------------------------
                       ORCA ELECTRIC PROPERTIES CALCULATION
------------------------------------------------------------------------------

Dipole Moment Calculation                       ... on
Quadrupole Moment Calculation                   ... off
Polarizability Calculation                      ... off
GBWName                                         ... pbeh-3c.gbw
Electron density                                ... pbeh-3c.scfp
The origin for moment calculation is the CENTER OF MASS  = (-0.000000,  0.000000  0.000000)

-------------
DIPOLE MOMENT
-------------
                                X             Y             Z
Electronic contribution:     -0.00004      -0.00003      -0.00000
Nuclear contribution   :     -0.00000      -0.00000       0.00000
                        -----------------------------------------
Total Dipole Moment    :     -0.00004      -0.00004      -0.00000
                        -----------------------------------------
Magnitude (a.u.)       :      0.00006
Magnitude (Debye)      :      0.00015



--------------------
Rotational spectrum 
--------------------
 
Rotational constants in cm-1:     0.164067     0.164067     0.085891 
Rotational constants in MHz :  4918.595083  4918.593690  2574.952047 

 Dipole components along the rotational axes: 
x,y,z [a.u.] :     0.000043    -0.000038    -0.000000 
x,y,z [Debye]:     0.000108    -0.000097    -0.000000 

 

Timings for individual modules:

Sum of individual times         ...       61.834 sec (=   1.031 min)
GTO integral calculation        ...        2.864 sec (=   0.048 min)   4.6 %
SCF iterations                  ...       58.970 sec (=   0.983 min)  95.4 %
                             ****ORCA TERMINATED NORMALLY****
TOTAL RUN TIME: 0 days 0 hours 1 minutes 9 seconds 352 msec
