
                                 *****************
                                 * O   R   C   A *
                                 *****************

                                            #,                                       
                                            ###                                      
                                            ####                                     
                                            #####                                    
                                            ######                                   
                                           ########,                                 
                                     ,,################,,,,,                         
                               ,,#################################,,                 
                          ,,##########################################,,             
                       ,#########################################, ''#####,          
                    ,#############################################,,   '####,        
                  ,##################################################,,,,####,       
                ,###########''''           ''''###############################       
              ,#####''   ,,,,##########,,,,          '''####'''          '####       
            ,##' ,,,,###########################,,,                        '##       
           ' ,,###''''                  '''############,,,                           
         ,,##''                                '''############,,,,        ,,,,,,###''
      ,#''                                            '''#######################'''  
     '                                                          ''''####''''         
             ,#######,   #######,   ,#######,      ##                                
            ,#'     '#,  ##    ##  ,#'     '#,    #''#        ######   ,####,        
            ##       ##  ##   ,#'  ##            #'  '#       #        #'  '#        
            ##       ##  #######   ##           ,######,      #####,   #    #        
            '#,     ,#'  ##    ##  '#,     ,#' ,#      #,         ##   #,  ,#        
             '#######'   ##     ##  '#######'  #'      '#     #####' # '####'        



                  #######################################################
                  #                        -***-                        #
                  #          Department of theory and spectroscopy      #
                  #    Directorship and core code : Frank Neese         #
                  #        Max Planck Institute fuer Kohlenforschung    #
                  #                Kaiser Wilhelm Platz 1               #
                  #                 D-45470 Muelheim/Ruhr               #
                  #                      Germany                        #
                  #                                                     #
                  #                  All rights reserved                #
                  #                        -***-                        #
                  #######################################################


                         Program Version 5.0.3 -  RELEASE  -


 With contributions from (in alphabetic order):
   Daniel Aravena         : Magnetic Suceptibility
   Michael Atanasov       : Ab Initio Ligand Field Theory (pilot matlab implementation)
   Alexander A. Auer      : GIAO ZORA, VPT2 properties, NMR spectrum
   Ute Becker             : Parallelization
   Giovanni Bistoni       : ED, misc. LED, open-shell LED, HFLD
   Martin Brehm           : Molecular dynamics
   Dmytro Bykov           : SCF Hessian
   Vijay G. Chilkuri      : MRCI spin determinant printing, contributions to CSF-ICE
   Dipayan Datta          : RHF DLPNO-CCSD density
   Achintya Kumar Dutta   : EOM-CC, STEOM-CC
   Dmitry Ganyushin       : Spin-Orbit,Spin-Spin,Magnetic field MRCI
   Miquel Garcia          : C-PCM and meta-GGA Hessian, CC/C-PCM, Gaussian charge scheme
   Yang Guo               : DLPNO-NEVPT2, F12-NEVPT2, CIM, IAO-localization
   Andreas Hansen         : Spin unrestricted coupled pair/coupled cluster methods
   Benjamin Helmich-Paris : MC-RPA, TRAH-SCF, COSX integrals
   Lee Huntington         : MR-EOM, pCC
   Robert Izsak           : Overlap fitted RIJCOSX, COSX-SCS-MP3, EOM
   Marcus Kettner         : VPT2
   Christian Kollmar      : KDIIS, OOCD, Brueckner-CCSD(T), CCSD density, CASPT2, CASPT2-K
   Simone Kossmann        : Meta GGA functionals, TD-DFT gradient, OOMP2, MP2 Hessian
   Martin Krupicka        : Initial AUTO-CI
   Lucas Lang             : DCDCAS
   Marvin Lechner         : AUTO-CI (C++ implementation), FIC-MRCC
   Dagmar Lenk            : GEPOL surface, SMD
   Dimitrios Liakos       : Extrapolation schemes; Compound Job, initial MDCI parallelization
   Dimitrios Manganas     : Further ROCIS development; embedding schemes
   Dimitrios Pantazis     : SARC Basis sets
   Anastasios Papadopoulos: AUTO-CI, single reference methods and gradients
   Taras Petrenko         : DFT Hessian,TD-DFT gradient, ASA, ECA, R-Raman, ABS, FL, XAS/XES, NRVS
   Peter Pinski           : DLPNO-MP2, DLPNO-MP2 Gradient
   Christoph Reimann      : Effective Core Potentials
   Marius Retegan         : Local ZFS, SOC
   Christoph Riplinger    : Optimizer, TS searches, QM/MM, DLPNO-CCSD(T), (RO)-DLPNO pert. Triples
   Tobias Risthaus        : Range-separated hybrids, TD-DFT gradient, RPA, STAB
   Michael Roemelt        : Original ROCIS implementation
   Masaaki Saitow         : Open-shell DLPNO-CCSD energy and density
   Barbara Sandhoefer     : DKH picture change effects
   Avijit Sen             : IP-ROCIS
   Kantharuban Sivalingam : CASSCF convergence, NEVPT2, FIC-MRCI
   Bernardo de Souza      : ESD, SOC TD-DFT
   Georgi Stoychev        : AutoAux, RI-MP2 NMR, DLPNO-MP2 response
   Willem Van den Heuvel  : Paramagnetic NMR
   Boris Wezisla          : Elementary symmetry handling
   Frank Wennmohs         : Technical directorship


 We gratefully acknowledge several colleagues who have allowed us to
 interface, adapt or use parts of their codes:
   Stefan Grimme, W. Hujo, H. Kruse, P. Pracht,  : VdW corrections, initial TS optimization,
                  C. Bannwarth, S. Ehlert          DFT functionals, gCP, sTDA/sTD-DF
   Ed Valeev, F. Pavosevic, A. Kumar             : LibInt (2-el integral package), F12 methods
   Garnet Chan, S. Sharma, J. Yang, R. Olivares  : DMRG
   Ulf Ekstrom                                   : XCFun DFT Library
   Mihaly Kallay                                 : mrcc  (arbitrary order and MRCC methods)
   Jiri Pittner, Ondrej Demel                    : Mk-CCSD
   Frank Weinhold                                : gennbo (NPA and NBO analysis)
   Christopher J. Cramer and Donald G. Truhlar   : smd solvation model
   Lars Goerigk                                  : TD-DFT with DH, B97 family of functionals
   V. Asgeirsson, H. Jonsson                     : NEB implementation
   FAccTs GmbH                                   : IRC, NEB, NEB-TS, DLPNO-Multilevel, CI-OPT
                                                   MM, QMMM, 2- and 3-layer-ONIOM, Crystal-QMMM,
                                                   LR-CPCM, SF, NACMEs, symmetry and pop. for TD-DFT,
                                                   nearIR, NL-DFT gradient (VV10), updates on ESD,
                                                   ML-optimized integration grids
   S Lehtola, MJT Oliveira, MAL Marques          : LibXC Library
   Liviu Ungur et al                             : ANISO software


 Your calculation uses the libint2 library for the computation of 2-el integrals
 For citations please refer to: http://libint.valeyev.net

 Your ORCA version has been built with support for libXC version: 5.1.0
 For citations please refer to: https://tddft.org/programs/libxc/

 This ORCA versions uses:
   CBLAS   interface :  Fast vector & matrix operations
   LAPACKE interface :  Fast linear algebra routines
   SCALAPACK package :  Parallel linear algebra routines
   Shared memory     :  Shared parallel matrices
   BLAS/LAPACK       :  OpenBLAS 0.3.15  USE64BITINT DYNAMIC_ARCH NO_AFFINITY Haswell SINGLE_THREADED
        Core in use  :  Haswell
   Copyright (c) 2011-2014, The OpenBLAS Project




***************************************
The coordinates will be read from file: bifuran_TS.xyz
***************************************


Your calculation utilizes the geometrical counterpoise correction gCP
Please cite in your paper:
H.Kruse, S. Grimme J.Chem.Phys., 136, (2012), 154101 
   

Your calculation utilizes the atom-pairwise dispersion correction
with the Becke-Johnson damping scheme (D3BJ)
Cite in your paper:
S.Grimme, S.Ehrlich, L.Goerigk, J Comput Chem, (2011), 32, 1456–1465 
S.Grimme, J.Antony, S.Ehrlich and H.Krieg, J.Chem.Phys., 132, (2010), 154104 
   

Your calculation employs the composite approach PBEh-3c.
Please cite in your paper:
S. Grimme, J. G. Brandenburg, C. Bannwarth, A. Hansen J.Chem.Phys., 143, (2015), 054107 
   

================================================================================

----- Orbital basis set information -----
Your calculation utilizes the basis: def2-mSVP

----- AuxJ basis set information -----
Your calculation utilizes the auxiliary basis: def2/J
   F. Weigend, Phys. Chem. Chem. Phys. 8, 1057 (2006).

================================================================================
                                        WARNINGS
                       Please study these warnings very carefully!
================================================================================


INFO   : the flag for use of the SHARK integral package has been found!

================================================================================
                                       INPUT FILE
================================================================================
NAME = pbeh-3c.inp
|  1> ! PBEh-3c def2/J TightSCF DefGrid3
|  2> 
|  3> %maxcore 60000
|  4> 
|  5> %pal
|  6> nprocs 4
|  7> end
|  8> 
|  9> *xyzfile 0 1 bifuran_TS.xyz
| 10> 
| 11>                          ****END OF INPUT****
================================================================================

                       ****************************
                       * Single Point Calculation *
                       ****************************

---------------------------------
CARTESIAN COORDINATES (ANGSTROEM)
---------------------------------
  O      1.297484    1.007403   -0.749826
  C      0.722512    0.039569    0.017277
  C     -0.722512   -0.039569    0.017277
  O     -1.297484   -1.007403   -0.749826
  C     -2.629948   -0.869160   -0.618232
  C     -2.932387    0.165340    0.195864
  C     -1.687518    0.709434    0.614540
  H     -1.521557    1.543723    1.268582
  H     -3.915859    0.497327    0.467519
  H     -3.225020   -1.575341   -1.162741
  C      2.629948    0.869160   -0.618232
  C      2.932387   -0.165340    0.195864
  C      1.687518   -0.709434    0.614540
  H      3.225020    1.575341   -1.162741
  H      3.915859   -0.497327    0.467519
  H      1.521557   -1.543723    1.268582

----------------------------
CARTESIAN COORDINATES (A.U.)
----------------------------
  NO LB      ZA    FRAG     MASS         X           Y           Z
   0 O     8.0000    0    15.999    2.451890    1.903716   -1.416965
   1 C     6.0000    0    12.011    1.365350    0.074775    0.032649
   2 C     6.0000    0    12.011   -1.365350   -0.074775    0.032649
   3 O     8.0000    0    15.999   -2.451890   -1.903716   -1.416965
   4 C     6.0000    0    12.011   -4.969881   -1.642475   -1.168288
   5 C     6.0000    0    12.011   -5.541408    0.312448    0.370130
   6 C     6.0000    0    12.011   -3.188946    1.340635    1.161312
   7 H     1.0000    0     1.008   -2.875326    2.917214    2.397272
   8 H     1.0000    0     1.008   -7.399901    0.939813    0.883483
   9 H     1.0000    0     1.008   -6.094404   -2.976962   -2.197263
  10 C     6.0000    0    12.011    4.969881    1.642475   -1.168288
  11 C     6.0000    0    12.011    5.541408   -0.312448    0.370130
  12 C     6.0000    0    12.011    3.188946   -1.340635    1.161312
  13 H     1.0000    0     1.008    6.094404    2.976962   -2.197263
  14 H     1.0000    0     1.008    7.399901   -0.939813    0.883483
  15 H     1.0000    0     1.008    2.875326   -2.917214    2.397272

--------------------------------
INTERNAL COORDINATES (ANGSTROEM)
--------------------------------
 O      0   0   0     0.000000000000     0.00000000     0.00000000
 C      1   0   0     1.362256103191     0.00000000     0.00000000
 C      2   1   0     1.447189651791   117.40602441     0.00000000
 O      3   2   1     1.362256103191   117.40602441   101.26356502
 C      4   3   2     1.346063452280   106.84550722   181.42514635
 C      5   4   3     1.350708572075   111.05297997     0.71357847
 C      3   2   1     1.359766136417   132.72662389   283.90998268
 H      7   3   2     1.073011243581   125.89148011   357.91856045
 H      6   5   4     1.072953494010   126.49946791   179.72547430
 H      5   4   3     1.072050648403   115.60495453   180.57673770
 C      1   2   3     1.346063452280   106.84550722   181.42514635
 C     11   1   2     1.350708572075   111.05297997     0.71357847
 C      2   1   3     1.359766136417   109.82498466   177.93375272
 H     11   1   2     1.072050648403   115.60495453   180.57673770
 H     12  11   1     1.072953494010   126.49946791   179.72547430
 H     13   2   1     1.073011243581   125.89148011   180.41587992

---------------------------
INTERNAL COORDINATES (A.U.)
---------------------------
 O      0   0   0     0.000000000000     0.00000000     0.00000000
 C      1   0   0     2.574290959294     0.00000000     0.00000000
 C      2   1   0     2.734792105730   117.40602441     0.00000000
 O      3   2   1     2.574290959294   117.40602441   101.26356502
 C      4   3   2     2.543691283691   106.84550722   181.42514635
 C      5   4   3     2.552469287961   111.05297997     0.71357847
 C      3   2   1     2.569585604009   132.72662389   283.90998268
 H      7   3   2     2.027697388986   125.89148011   357.91856045
 H      6   5   4     2.027588258112   126.49946791   179.72547430
 H      5   4   3     2.025882127174   115.60495453   180.57673770
 C      1   2   3     2.543691283691   106.84550722   181.42514635
 C     11   1   2     2.552469287961   111.05297997     0.71357847
 C      2   1   3     2.569585604009   109.82498466   177.93375272
 H     11   1   2     2.025882127174   115.60495453   180.57673770
 H     12  11   1     2.027588258112   126.49946791   179.72547430
 H     13   2   1     2.027697388986   125.89148011   180.41587992

---------------------
BASIS SET INFORMATION
---------------------
There are 3 groups of distinct atoms

 Group   1 Type O   : 8s4p1d contracted to 4s2p1d pattern {5111/31/1}
 Group   2 Type C   : 8s4p1d contracted to 4s2p1d pattern {5111/31/1}
 Group   3 Type H   : 4s contracted to 2s pattern {31}

Atom   0O    basis set group =>   1
Atom   1C    basis set group =>   2
Atom   2C    basis set group =>   2
Atom   3O    basis set group =>   1
Atom   4C    basis set group =>   2
Atom   5C    basis set group =>   2
Atom   6C    basis set group =>   2
Atom   7H    basis set group =>   3
Atom   8H    basis set group =>   3
Atom   9H    basis set group =>   3
Atom  10C    basis set group =>   2
Atom  11C    basis set group =>   2
Atom  12C    basis set group =>   2
Atom  13H    basis set group =>   3
Atom  14H    basis set group =>   3
Atom  15H    basis set group =>   3
---------------------------------
AUXILIARY/J BASIS SET INFORMATION
---------------------------------
There are 3 groups of distinct atoms

 Group   1 Type O   : 12s5p4d2f1g contracted to 6s4p3d1f1g pattern {711111/2111/211/2/1}
 Group   2 Type C   : 12s5p4d2f1g contracted to 6s4p3d1f1g pattern {711111/2111/211/2/1}
 Group   3 Type H   : 5s2p1d contracted to 3s1p1d pattern {311/2/1}

Atom   0O    basis set group =>   1
Atom   1C    basis set group =>   2
Atom   2C    basis set group =>   2
Atom   3O    basis set group =>   1
Atom   4C    basis set group =>   2
Atom   5C    basis set group =>   2
Atom   6C    basis set group =>   2
Atom   7H    basis set group =>   3
Atom   8H    basis set group =>   3
Atom   9H    basis set group =>   3
Atom  10C    basis set group =>   2
Atom  11C    basis set group =>   2
Atom  12C    basis set group =>   2
Atom  13H    basis set group =>   3
Atom  14H    basis set group =>   3
Atom  15H    basis set group =>   3


           ************************************************************
           *        Program running with 4 parallel MPI-processes     *
           *              working on a common directory               *
           ************************************************************
------------------------------------------------------------------------------
                           ORCA GTO INTEGRAL CALCULATION
                           -- RI-GTO INTEGRALS CHOSEN --
------------------------------------------------------------------------------
------------------------------------------------------------------------------
                   ___                                                        
                  /   \      - P O W E R E D   B Y -                         
                 /     \                                                     
                 |  |  |   _    _      __       _____    __    __             
                 |  |  |  | |  | |    /  \     |  _  \  |  |  /  |          
                  \  \/   | |  | |   /    \    | | | |  |  | /  /          
                 / \  \   | |__| |  /  /\  \   | |_| |  |  |/  /          
                |  |  |   |  __  | /  /__\  \  |    /   |      \           
                |  |  |   | |  | | |   __   |  |    \   |  |\   \          
                \     /   | |  | | |  |  |  |  | |\  \  |  | \   \       
                 \___/    |_|  |_| |__|  |__|  |_| \__\ |__|  \__/        
                                                                              
                      - O R C A' S   B I G   F R I E N D -                    
                                      &                                       
                       - I N T E G R A L  F E E D E R -                       
                                                                              
 v1 FN, 2020, v2 2021                                                         
------------------------------------------------------------------------------


Reading SHARK input file pbeh-3c.SHARKINP.tmp ... ok
----------------------
SHARK INTEGRAL PACKAGE
----------------------

Number of atoms                             ...     16
Number of basis functions                   ...    162
Number of shells                            ...     82
Maximum angular momentum                    ...      2
Integral batch strategy                     ... SHARK/LIBINT Hybrid
RI-J (if used) integral strategy            ... SPLIT-RIJ (Revised 2003 algorithm where possible)
Printlevel                                  ...      1
Contraction scheme used                     ... SEGMENTED contraction
Coulomb Range Separation                    ... NOT USED
Exchange Range Separation                   ... NOT USED
Finite Nucleus Model                        ... NOT USED
Auxiliary Coulomb fitting basis             ... AVAILABLE
   # of basis functions in Aux-J            ...    556
   # of shells in Aux-J                     ...    180
   Maximum angular momentum in Aux-J        ...      4
Auxiliary J/K fitting basis                 ... NOT available
Auxiliary Correlation fitting basis         ... NOT available
Auxiliary 'external' fitting basis          ... NOT available
Integral threshold                          ...     2.500000e-11
Primitive cut-off                           ...     2.500000e-12
Primitive pair pre-selection threshold      ...     2.500000e-12

Calculating pre-screening integrals         ... done (  0.1 sec) Dimension = 82
Organizing shell pair data                  ... done (  0.4 sec)
Shell pair information
Total number of shell pairs                 ...      3403
Shell pairs after pre-screening             ...      2895
Total number of primitive shell pairs       ...     12083
Primitive shell pairs kept                  ...      7221
          la=0 lb=0:   1063 shell pairs
          la=1 lb=0:    960 shell pairs
          la=1 lb=1:    207 shell pairs
          la=2 lb=0:    422 shell pairs
          la=2 lb=1:    192 shell pairs
          la=2 lb=2:     51 shell pairs

Calculating one electron integrals          ... done (  0.0 sec)
Calculating RI/J V-Matrix + Cholesky decomp.... done (  0.4 sec)
Calculating Nuclear repulsion               ... done (  0.0 sec) ENN=    482.013064335213 Eh

SHARK setup successfully completed in   1.8 seconds

Maximum memory used throughout the entire GTOINT-calculation: 11.6 MB


           ************************************************************
           *        Program running with 4 parallel MPI-processes     *
           *              working on a common directory               *
           ************************************************************
-------------------------------------------------------------------------------
                                 ORCA SCF
-------------------------------------------------------------------------------

------------
SCF SETTINGS
------------
Hamiltonian:
 Density Functional     Method          .... DFT(GTOs)
 Exchange Functional    Exchange        .... PBE
   PBE kappa parameter   XKappa         ....  1.024500
   PBE mue parameter    XMuePBE         ....  0.123457
 Correlation Functional Correlation     .... PBE
   PBE beta parameter  CBetaPBE         ....  0.030000
 LDA part of GGA corr.  LDAOpt          .... PW91-LDA
 Gradients option       PostSCFGGA      .... off
 Hybrid DFT is turned on
   Fraction HF Exchange ScalHFX         ....  0.420000
   Scaling of DF-GGA-X  ScalDFX         ....  0.580000
   Scaling of DF-GGA-C  ScalDFC         ....  1.000000
   Scaling of DF-LDA-C  ScalLDAC        ....  1.000000
   Perturbative correction              ....  0.000000
   Density functional embedding theory  .... OFF
 RI-approximation to the Coulomb term is turned on
   Number of AuxJ basis functions       .... 556
   RIJ-ON(X) (HFX calculated with O(N)) .... on
   Number of AuxJ basis functions       .... 556
   RIJ-COSX (HFX calculated with COS-X)).... on


General Settings:
 Integral files         IntName         .... pbeh-3c
 Hartree-Fock type      HFTyp           .... RHF
 Total Charge           Charge          ....    0
 Multiplicity           Mult            ....    1
 Number of Electrons    NEL             ....   70
 Basis Dimension        Dim             ....  162
 Nuclear Repulsion      ENuc            ....    482.0130643352 Eh

Convergence Acceleration:
 DIIS                   CNVDIIS         .... on
   Start iteration      DIISMaxIt       ....    12
   Startup error        DIISStart       ....  0.200000
   # of expansion vecs  DIISMaxEq       ....     5
   Bias factor          DIISBfac        ....   1.050
   Max. coefficient     DIISMaxC        ....  10.000
 Trust-Rad. Augm. Hess. CNVTRAH         .... auto
   Auto Start mean grad. ratio tolernc. ....  1.125000
   Auto Start start iteration           ....    20
   Auto Start num. interpolation iter.  ....    10
   Max. Number of Micro iterations      ....    16
   Max. Number of Macro iterations      .... Maxiter - #DIIS iter
   Number of Davidson start vectors     ....     2
   Converg. threshold I  (grad. norm)   ....   1.000e-05
   Converg. threshold II (energy diff.) ....   1.000e-08
   Grad. Scal. Fac. for Micro threshold ....   0.100
   Minimum threshold for Micro iter.    ....   0.010
   NR start threshold (gradient norm)   ....   0.001
   Initial trust radius                 ....   0.400
   Minimum AH scaling param. (alpha)    ....   1.000
   Maximum AH scaling param. (alpha)    .... 1000.000
   Orbital update algorithm             .... Taylor
   White noise on init. David. guess    .... on
   Maximum white noise                  ....   0.010
   Quad. conv. algorithm                .... NR
   COSX micro iterations for RIJONX calc.... off
 SOSCF                  CNVSOSCF        .... on
   Start iteration      SOSCFMaxIt      ....   150
   Startup grad/error   SOSCFStart      ....  0.003300
 Level Shifting         CNVShift        .... on
   Level shift para.    LevelShift      ....    0.2500
   Turn off err/grad.   ShiftErr        ....    0.0010
 Zerner damping         CNVZerner       .... off
 Static damping         CNVDamp         .... on
   Fraction old density DampFac         ....    0.7000
   Max. Damping (<1)    DampMax         ....    0.9800
   Min. Damping (>=0)   DampMin         ....    0.0000
   Turn off err/grad.   DampErr         ....    0.1000
 Fernandez-Rico         CNVRico         .... off

SCF Procedure:
 Maximum # iterations   MaxIter         ....   125
 SCF integral mode      SCFMode         .... Direct
   Integral package                     .... SHARK and LIBINT hybrid scheme
 Reset frequency        DirectResetFreq ....    20
 Integral Threshold     Thresh          ....  2.500e-11 Eh
 Primitive CutOff       TCut            ....  2.500e-12 Eh

Convergence Tolerance:
 Convergence Check Mode ConvCheckMode   .... Total+1el-Energy
 Convergence forced     ConvForced      .... 0
 Energy Change          TolE            ....  1.000e-08 Eh
 1-El. energy change                    ....  1.000e-05 Eh
 Orbital Gradient       TolG            ....  1.000e-05
 Orbital Rotation angle TolX            ....  1.000e-05
 DIIS Error             TolErr          ....  5.000e-07


Diagonalization of the overlap matrix:
Smallest eigenvalue                        ... 7.724e-04
Time for diagonalization                   ...    0.005 sec
Threshold for overlap eigenvalues          ... 1.000e-08
Number of eigenvalues below threshold      ... 0
Time for construction of square roots      ...    0.155 sec
Total time needed                          ...    0.160 sec

--------------------------------
INITIAL GUESS: MINIMAL BASIS EHT
--------------------------------
The minimal basis has 56 functions
EHT matrix was diagonalized
Basis set overlap was calculated now projecting the orbitals
Using GuessMode=FMatrix for the initial guess
C*T matrix was formed
Effective Fockian was calculated
Effective Fockian was diagonalized
Initial density was built
                      ------------------
                      INITIAL GUESS DONE
                      ------------------
-------------------
DFT GRID GENERATION
-------------------

General Integration Accuracy     IntAcc      ... 4.959
Radial Grid Type                 RadialGrid  ... OptM3 with GC (2021)
Angular Grid (max. ang.)         AngularGrid ... 6 (Lebedev-590)
Angular grid pruning method      GridPruning ... 4 (adaptive)
Weight generation scheme         WeightScheme... Becke
Basis function cutoff            BFCut       ... 1.0000e-11
Integration weight cutoff        WCut        ... 1.0000e-14
Angular grids for H and He will be reduced by one unit
Partially contracted basis set               ... off
Rotationally invariant grid construction     ... off

Total number of grid points                  ...   195860
Total number of batches                      ...     3066
Average number of points per batch           ...       63
Average number of grid points per atom       ...    12241
Time for grid setup =    4.079 sec

--------------------
COSX GRID GENERATION
--------------------

GRIDX 1
-------
General Integration Accuracy     IntAcc      ... 4.020
Radial Grid Type                 RadialGrid  ... OptM3 with GC (2021)
Angular Grid (max. ang.)         AngularGrid ... 2 (Lebedev-110)
Angular grid pruning method      GridPruning ... 4 (adaptive)
Weight generation scheme         WeightScheme... Becke
Basis function cutoff            BFCut       ... 1.0000e-11
Integration weight cutoff        WCut        ... 1.0000e-14
Angular grids for H and He will be reduced by one unit
Partially contracted basis set               ... on
Rotationally invariant grid construction     ... off

Total number of grid points                  ...    22672
Total number of batches                      ...      360
Average number of points per batch           ...       62
Average number of grid points per atom       ...     1417
UseSFitting                                  ... on

GRIDX 2
-------
General Integration Accuracy     IntAcc      ... 4.338
Radial Grid Type                 RadialGrid  ... OptM3 with GC (2021)
Angular Grid (max. ang.)         AngularGrid ... 3 (Lebedev-194)
Angular grid pruning method      GridPruning ... 4 (adaptive)
Weight generation scheme         WeightScheme... Becke
Basis function cutoff            BFCut       ... 1.0000e-11
Integration weight cutoff        WCut        ... 1.0000e-14
Angular grids for H and He will be reduced by one unit
Partially contracted basis set               ... on
Rotationally invariant grid construction     ... off

Total number of grid points                  ...    49974
Total number of batches                      ...      788
Average number of points per batch           ...       63
Average number of grid points per atom       ...     3123
UseSFitting                                  ... on

GRIDX 3
-------
General Integration Accuracy     IntAcc      ... 4.871
Radial Grid Type                 RadialGrid  ... OptM3 with GC (2021)
Angular Grid (max. ang.)         AngularGrid ... 4 (Lebedev-302)
Angular grid pruning method      GridPruning ... 4 (adaptive)
Weight generation scheme         WeightScheme... Becke
Basis function cutoff            BFCut       ... 1.0000e-11
Integration weight cutoff        WCut        ... 1.0000e-14
Angular grids for H and He will be reduced by one unit
Partially contracted basis set               ... on
Rotationally invariant grid construction     ... off

Total number of grid points                  ...    93090
Total number of batches                      ...     1462
Average number of points per batch           ...       63
Average number of grid points per atom       ...     5818
UseSFitting                                  ... on

Time for X-Grid setup             =    7.261 sec

--------------
SCF ITERATIONS
--------------
ITER       Energy         Delta-E        Max-DP      RMS-DP      [F,P]     Damp
               ***  Starting incremental Fock matrix formation  ***
  0   -456.6876679110   0.000000000000 0.11184649  0.00491956  0.4309223 0.7000
  1   -457.0593412730  -0.371673362014 0.07925361  0.00345145  0.3031302 0.7000
  2   -457.3000313774  -0.240690104366 0.05918177  0.00244365  0.2118759 0.7000
                               ***Turning on DIIS***
  3   -457.4693967396  -0.169365362202 0.04274246  0.00177324  0.1482041 0.7000
  4   -457.5901926584  -0.120795918877 0.03063923  0.00136975  0.1038129 0.7000
  5   -457.6760243530  -0.085831694518 0.07067872  0.00338102  0.0728981 0.0000
                      *** Initiating the SOSCF procedure ***
                           *** Shutting down DIIS ***
                      *** Re-Reading the Fockian *** 
                      *** Removing any level shift *** 
ITER      Energy       Delta-E        Grad      Rot      Max-DP    RMS-DP
  6   -457.88139126  -0.2053669064  0.001234  0.001234  0.002394  0.000127
               *** Restarting incremental Fock matrix formation ***
  7   -457.88151864  -0.0001273812  0.000593  0.001579  0.002054  0.000088
  8   -457.88153876  -0.0000201148  0.000677  0.001570  0.000921  0.000045
  9   -457.88154530  -0.0000065476  0.000284  0.000499  0.000330  0.000020
 10   -457.88154675  -0.0000014458  0.000088  0.000135  0.000221  0.000008
 11   -457.88154691  -0.0000001594  0.000046  0.000076  0.000105  0.000005
 12   -457.88154705  -0.0000001386  0.000008  0.000025  0.000029  0.000001
 13   -457.88154705  -0.0000000066  0.000009  0.000015  0.000015  0.000001
                  ***Gradient check signals convergence***
              ***Rediagonalizing the Fockian in SOSCF/NRSCF***

               *****************************************************
               *                     SUCCESS                       *
               *           SCF CONVERGED AFTER  14 CYCLES          *
               *****************************************************

Old exchange energy                            =    -25.225428313 Eh
New exchange energy                            =    -25.225427135 Eh
Exchange energy change after final integration =      0.000001178 Eh
Total energy after final integration           =   -457.881545877 Eh
Final COS-X integration done in                =     7.945 sec

----------------
TOTAL SCF ENERGY
----------------

Total Energy       :         -457.88154588 Eh          -12459.59030 eV

Components:
Nuclear Repulsion  :          482.01306434 Eh           13116.24230 eV
Electronic Energy  :         -939.89461021 Eh          -25575.83259 eV
One Electron Energy:        -1577.31546203 Eh          -42920.93578 eV
Two Electron Energy:          637.42085182 Eh           17345.10319 eV
Max COSX asymmetry :            0.00000068 Eh               0.00002 eV

Virial components:
Potential Energy   :         -912.56540856 Eh          -24832.16721 eV
Kinetic Energy     :          454.68386269 Eh           12372.57691 eV
Virial Ratio       :            2.00703276


DFT components:
N(Alpha)           :       34.999998676283 electrons
N(Beta)            :       34.999998676283 electrons
N(Total)           :       69.999997352566 electrons
E(X)               :      -33.564849218517 Eh       
E(C)               :       -3.096231279575 Eh       
E(XC)              :      -36.661080498093 Eh       
DFET-embed. en.    :        0.000000000000 Eh       

---------------
SCF CONVERGENCE
---------------

  Last Energy change         ...   -2.4836e-09  Tolerance :   1.0000e-08
  Last MAX-Density change    ...    8.0258e-16  Tolerance :   1.0000e-07
  Last RMS-Density change    ...    3.3359e-17  Tolerance :   5.0000e-09
  Last Orbital Gradient      ...    1.4486e-06  Tolerance :   1.0000e-05
  Last Orbital Rotation      ...    2.6217e-06  Tolerance :   1.0000e-05

             **** THE GBW FILE WAS UPDATED (pbeh-3c.gbw) ****
             **** DENSITY pbeh-3c.scfp WAS UPDATED ****
             **** ENERGY FILE WAS UPDATED (pbeh-3c.en.tmp) ****
             **** THE GBW FILE WAS UPDATED (pbeh-3c.gbw) ****
             **** DENSITY pbeh-3c.scfp WAS UPDATED ****
----------------
ORBITAL ENERGIES
----------------

  NO   OCC          E(Eh)            E(eV) 
   0   2.0000     -19.569707      -532.5188 
   1   2.0000     -19.569704      -532.5187 
   2   2.0000     -10.504546      -285.8432 
   3   2.0000     -10.504204      -285.8339 
   4   2.0000     -10.496868      -285.6343 
   5   2.0000     -10.496848      -285.6338 
   6   2.0000     -10.447763      -284.2981 
   7   2.0000     -10.447722      -284.2970 
   8   2.0000     -10.444114      -284.1988 
   9   2.0000     -10.444111      -284.1987 
  10   2.0000      -1.239023       -33.7155 
  11   2.0000      -1.230891       -33.4942 
  12   2.0000      -0.905323       -24.6351 
  13   2.0000      -0.901696       -24.5364 
  14   2.0000      -0.881165       -23.9777 
  15   2.0000      -0.809832       -22.0367 
  16   2.0000      -0.686070       -18.6689 
  17   2.0000      -0.684474       -18.6255 
  18   2.0000      -0.672203       -18.2916 
  19   2.0000      -0.628902       -17.1133 
  20   2.0000      -0.622344       -16.9348 
  21   2.0000      -0.572697       -15.5839 
  22   2.0000      -0.530270       -14.4294 
  23   2.0000      -0.522619       -14.2212 
  24   2.0000      -0.507219       -13.8021 
  25   2.0000      -0.484350       -13.1798 
  26   2.0000      -0.469434       -12.7739 
  27   2.0000      -0.465215       -12.6592 
  28   2.0000      -0.460040       -12.5183 
  29   2.0000      -0.443592       -12.0708 
  30   2.0000      -0.433312       -11.7910 
  31   2.0000      -0.334706        -9.1078 
  32   2.0000      -0.330025        -8.9804 
  33   2.0000      -0.284483        -7.7412 
  34   2.0000      -0.265885        -7.2351 
  35   0.0000       0.022482         0.6118 
  36   0.0000       0.038226         1.0402 
  37   0.0000       0.090375         2.4592 
  38   0.0000       0.100245         2.7278 
  39   0.0000       0.174637         4.7521 
  40   0.0000       0.175566         4.7774 
  41   0.0000       0.204538         5.5658 
  42   0.0000       0.208617         5.6767 
  43   0.0000       0.218333         5.9412 
  44   0.0000       0.218647         5.9497 
  45   0.0000       0.235578         6.4104 
  46   0.0000       0.238210         6.4820 
  47   0.0000       0.262918         7.1544 
  48   0.0000       0.281582         7.6622 
  49   0.0000       0.286796         7.8041 
  50   0.0000       0.319795         8.7021 
  51   0.0000       0.393169        10.6987 
  52   0.0000       0.403250        10.9730 
  53   0.0000       0.431083        11.7304 
  54   0.0000       0.463083        12.6011 
  55   0.0000       0.471938        12.8421 
  56   0.0000       0.509631        13.8678 
  57   0.0000       0.525853        14.3092 
  58   0.0000       0.529493        14.4082 
  59   0.0000       0.544934        14.8284 
  60   0.0000       0.569809        15.5053 
  61   0.0000       0.588052        16.0017 
  62   0.0000       0.607492        16.5307 
  63   0.0000       0.608486        16.5577 
  64   0.0000       0.628042        17.0899 
  65   0.0000       0.637279        17.3413 
  66   0.0000       0.640565        17.4307 
  67   0.0000       0.648316        17.6416 
  68   0.0000       0.662784        18.0353 
  69   0.0000       0.670247        18.2383 
  70   0.0000       0.678975        18.4758 
  71   0.0000       0.694078        18.8868 
  72   0.0000       0.698525        19.0078 
  73   0.0000       0.717799        19.5323 
  74   0.0000       0.729056        19.8386 
  75   0.0000       0.798006        21.7149 
  76   0.0000       0.814139        22.1538 
  77   0.0000       0.858353        23.3570 
  78   0.0000       0.886569        24.1248 
  79   0.0000       0.901587        24.5334 
  80   0.0000       0.914186        24.8763 
  81   0.0000       0.945314        25.7233 
  82   0.0000       0.956668        26.0323 
  83   0.0000       0.974697        26.5229 
  84   0.0000       0.994608        27.0647 
  85   0.0000       1.041846        28.3501 
  86   0.0000       1.072712        29.1900 
  87   0.0000       1.085805        29.5463 
  88   0.0000       1.093606        29.7585 
  89   0.0000       1.104545        30.0562 
  90   0.0000       1.123826        30.5809 
  91   0.0000       1.140180        31.0259 
  92   0.0000       1.148840        31.2615 
  93   0.0000       1.183433        32.2028 
  94   0.0000       1.210760        32.9465 
  95   0.0000       1.348970        36.7073 
  96   0.0000       1.376301        37.4511 
  97   0.0000       1.380434        37.5635 
  98   0.0000       1.394558        37.9479 
  99   0.0000       1.422252        38.7015 
 100   0.0000       1.433736        39.0139 
 101   0.0000       1.438507        39.1438 
 102   0.0000       1.497054        40.7369 
 103   0.0000       1.497225        40.7416 
 104   0.0000       1.551562        42.2201 
 105   0.0000       1.564915        42.5835 
 106   0.0000       1.592942        43.3462 
 107   0.0000       1.615914        43.9713 
 108   0.0000       1.621300        44.1178 
 109   0.0000       1.664445        45.2919 
 110   0.0000       1.687690        45.9244 
 111   0.0000       1.745917        47.5088 
 112   0.0000       1.899561        51.6897 
 113   0.0000       1.920128        52.2493 
 114   0.0000       1.992279        54.2127 
 115   0.0000       2.012499        54.7629 
 116   0.0000       2.049933        55.7815 
 117   0.0000       2.052876        55.8616 
 118   0.0000       2.073945        56.4349 
 119   0.0000       2.108257        57.3686 
 120   0.0000       2.130401        57.9712 
 121   0.0000       2.158610        58.7388 
 122   0.0000       2.167636        58.9844 
 123   0.0000       2.179129        59.2971 
 124   0.0000       2.248753        61.1917 
 125   0.0000       2.275296        61.9140 
 126   0.0000       2.289423        62.2984 
 127   0.0000       2.306457        62.7619 
 128   0.0000       2.328272        63.3555 
 129   0.0000       2.347980        63.8918 
 130   0.0000       2.356856        64.1333 
 131   0.0000       2.401628        65.3516 
 132   0.0000       2.407361        65.5076 
 133   0.0000       2.437822        66.3365 
 134   0.0000       2.464859        67.0722 
 135   0.0000       2.522000        68.6271 
 136   0.0000       2.620012        71.2941 
 137   0.0000       2.681710        72.9730 
 138   0.0000       2.683885        73.0322 
 139   0.0000       2.709817        73.7379 
 140   0.0000       2.745124        74.6986 
 141   0.0000       2.761012        75.1309 
 142   0.0000       2.811512        76.5051 
 143   0.0000       2.866326        77.9967 
 144   0.0000       2.868468        78.0550 
 145   0.0000       2.886205        78.5376 
 146   0.0000       3.071158        83.5704 
 147   0.0000       3.080109        83.8140 
 148   0.0000       3.085662        83.9651 
 149   0.0000       3.158460        85.9461 
 150   0.0000       3.251868        88.4878 
 151   0.0000       3.360349        91.4398 
 152   0.0000      13.350920       363.2970 
 153   0.0000      13.573109       369.3431 
 154   0.0000      13.688193       372.4747 
 155   0.0000      13.816370       375.9625 
 156   0.0000      14.040708       382.0671 
 157   0.0000      14.230816       387.2402 
 158   0.0000      14.350137       390.4871 
 159   0.0000      14.410293       392.1240 
 160   0.0000      25.678435       698.7457 
 161   0.0000      25.694441       699.1813 

                    ********************************
                    * MULLIKEN POPULATION ANALYSIS *
                    ********************************

-----------------------
MULLIKEN ATOMIC CHARGES
-----------------------
   0 O :   -0.385709
   1 C :    0.291739
   2 C :    0.291739
   3 O :   -0.385709
   4 C :    0.023836
   5 C :   -0.292388
   6 C :   -0.327812
   7 H :    0.228647
   8 H :    0.226931
   9 H :    0.234756
  10 C :    0.023836
  11 C :   -0.292388
  12 C :   -0.327812
  13 H :    0.234756
  14 H :    0.226931
  15 H :    0.228647
Sum of atomic charges:   -0.0000000

--------------------------------
MULLIKEN REDUCED ORBITAL CHARGES
--------------------------------
  0 O s       :     3.784040  s :     3.784040
      pz      :     1.623004  p :     4.559659
      px      :     1.338021
      py      :     1.598634
      dz2     :     0.006804  d :     0.042011
      dxz     :     0.009172
      dyz     :     0.006931
      dx2y2   :     0.010071
      dxy     :     0.009033
  1 C s       :     3.124751  s :     3.124751
      pz      :     0.933022  p :     2.508574
      px      :     0.720758
      py      :     0.854794
      dz2     :     0.012587  d :     0.074937
      dxz     :     0.014682
      dyz     :     0.011270
      dx2y2   :     0.018944
      dxy     :     0.017453
  2 C s       :     3.124751  s :     3.124751
      pz      :     0.933022  p :     2.508574
      px      :     0.720758
      py      :     0.854794
      dz2     :     0.012587  d :     0.074937
      dxz     :     0.014682
      dyz     :     0.011270
      dx2y2   :     0.018944
      dxy     :     0.017453
  3 O s       :     3.784040  s :     3.784040
      pz      :     1.623004  p :     4.559659
      px      :     1.338021
      py      :     1.598634
      dz2     :     0.006804  d :     0.042011
      dxz     :     0.009172
      dyz     :     0.006931
      dx2y2   :     0.010071
      dxy     :     0.009033
  4 C s       :     3.163433  s :     3.163433
      pz      :     1.015649  p :     2.743374
      px      :     0.720894
      py      :     1.006832
      dz2     :     0.009914  d :     0.069357
      dxz     :     0.014515
      dyz     :     0.007021
      dx2y2   :     0.020932
      dxy     :     0.016976
  5 C s       :     3.243121  s :     3.243121
      pz      :     1.013571  p :     3.009097
      px      :     1.021387
      py      :     0.974139
      dz2     :     0.007621  d :     0.040170
      dxz     :     0.006893
      dyz     :     0.005380
      dx2y2   :     0.011749
      dxy     :     0.008526
  6 C s       :     3.292129  s :     3.292129
      pz      :     1.054607  p :     2.995266
      px      :     0.881208
      py      :     1.059451
      dz2     :     0.004347  d :     0.040417
      dxz     :     0.009741
      dyz     :     0.007351
      dx2y2   :     0.007899
      dxy     :     0.011079
  7 H s       :     0.771353  s :     0.771353
  8 H s       :     0.773069  s :     0.773069
  9 H s       :     0.765244  s :     0.765244
 10 C s       :     3.163433  s :     3.163433
      pz      :     1.015649  p :     2.743374
      px      :     0.720894
      py      :     1.006832
      dz2     :     0.009914  d :     0.069357
      dxz     :     0.014515
      dyz     :     0.007021
      dx2y2   :     0.020932
      dxy     :     0.016976
 11 C s       :     3.243121  s :     3.243121
      pz      :     1.013571  p :     3.009097
      px      :     1.021387
      py      :     0.974139
      dz2     :     0.007621  d :     0.040170
      dxz     :     0.006893
      dyz     :     0.005380
      dx2y2   :     0.011749
      dxy     :     0.008526
 12 C s       :     3.292129  s :     3.292129
      pz      :     1.054607  p :     2.995267
      px      :     0.881208
      py      :     1.059452
      dz2     :     0.004347  d :     0.040417
      dxz     :     0.009741
      dyz     :     0.007351
      dx2y2   :     0.007899
      dxy     :     0.011079
 13 H s       :     0.765244  s :     0.765244
 14 H s       :     0.773069  s :     0.773069
 15 H s       :     0.771353  s :     0.771353


                     *******************************
                     * LOEWDIN POPULATION ANALYSIS *
                     *******************************

----------------------
LOEWDIN ATOMIC CHARGES
----------------------
   0 O :   -0.060423
   1 C :    0.024974
   2 C :    0.024974
   3 O :   -0.060423
   4 C :   -0.034933
   5 C :   -0.195626
   6 C :   -0.164448
   7 H :    0.148141
   8 H :    0.144398
   9 H :    0.137917
  10 C :   -0.034933
  11 C :   -0.195626
  12 C :   -0.164448
  13 H :    0.137917
  14 H :    0.144398
  15 H :    0.148141

-------------------------------
LOEWDIN REDUCED ORBITAL CHARGES
-------------------------------
  0 O s       :     3.411949  s :     3.411949
      pz      :     1.604336  p :     4.559561
      px      :     1.366013
      py      :     1.589212
      dz2     :     0.012473  d :     0.088913
      dxz     :     0.020917
      dyz     :     0.011602
      dx2y2   :     0.022842
      dxy     :     0.021079
  1 C s       :     2.828164  s :     2.828164
      pz      :     0.992051  p :     2.975299
      px      :     1.025668
      py      :     0.957580
      dz2     :     0.026364  d :     0.171564
      dxz     :     0.033007
      dyz     :     0.027652
      dx2y2   :     0.043060
      dxy     :     0.041481
  2 C s       :     2.828164  s :     2.828164
      pz      :     0.992051  p :     2.975299
      px      :     1.025668
      py      :     0.957580
      dz2     :     0.026364  d :     0.171564
      dxz     :     0.033007
      dyz     :     0.027652
      dx2y2   :     0.043060
      dxy     :     0.041481
  3 O s       :     3.411949  s :     3.411949
      pz      :     1.604336  p :     4.559561
      px      :     1.366013
      py      :     1.589212
      dz2     :     0.012473  d :     0.088913
      dxz     :     0.020917
      dyz     :     0.011602
      dx2y2   :     0.022842
      dxy     :     0.021079
  4 C s       :     2.891496  s :     2.891496
      pz      :     1.059792  p :     2.991981
      px      :     0.857250
      py      :     1.074939
      dz2     :     0.020095  d :     0.151456
      dxz     :     0.031988
      dyz     :     0.014074
      dx2y2   :     0.047242
      dxy     :     0.038058
  5 C s       :     2.896527  s :     2.896527
      pz      :     1.065758  p :     3.208048
      px      :     1.071375
      py      :     1.070915
      dz2     :     0.015138  d :     0.091051
      dxz     :     0.015295
      dyz     :     0.013648
      dx2y2   :     0.026504
      dxy     :     0.020466
  6 C s       :     2.896423  s :     2.896423
      pz      :     1.055945  p :     3.177041
      px      :     1.054304
      py      :     1.066793
      dz2     :     0.007936  d :     0.090983
      dxz     :     0.023313
      dyz     :     0.012565
      dx2y2   :     0.019355
      dxy     :     0.027814
  7 H s       :     0.851859  s :     0.851859
  8 H s       :     0.855602  s :     0.855602
  9 H s       :     0.862083  s :     0.862083
 10 C s       :     2.891496  s :     2.891496
      pz      :     1.059792  p :     2.991981
      px      :     0.857250
      py      :     1.074939
      dz2     :     0.020095  d :     0.151456
      dxz     :     0.031988
      dyz     :     0.014074
      dx2y2   :     0.047242
      dxy     :     0.038058
 11 C s       :     2.896526  s :     2.896526
      pz      :     1.065758  p :     3.208048
      px      :     1.071375
      py      :     1.070915
      dz2     :     0.015138  d :     0.091051
      dxz     :     0.015295
      dyz     :     0.013648
      dx2y2   :     0.026504
      dxy     :     0.020466
 12 C s       :     2.896423  s :     2.896423
      pz      :     1.055945  p :     3.177041
      px      :     1.054304
      py      :     1.066793
      dz2     :     0.007936  d :     0.090983
      dxz     :     0.023313
      dyz     :     0.012565
      dx2y2   :     0.019355
      dxy     :     0.027814
 13 H s       :     0.862083  s :     0.862083
 14 H s       :     0.855602  s :     0.855602
 15 H s       :     0.851859  s :     0.851859


                      *****************************
                      * MAYER POPULATION ANALYSIS *
                      *****************************

  NA   - Mulliken gross atomic population
  ZA   - Total nuclear charge
  QA   - Mulliken gross atomic charge
  VA   - Mayer's total valence
  BVA  - Mayer's bonded valence
  FA   - Mayer's free valence

  ATOM       NA         ZA         QA         VA         BVA        FA
  0 O      8.3857     8.0000    -0.3857     2.3298     2.3298    -0.0000
  1 C      5.7083     6.0000     0.2917     3.5828     3.5828    -0.0000
  2 C      5.7083     6.0000     0.2917     3.5828     3.5828    -0.0000
  3 O      8.3857     8.0000    -0.3857     2.3298     2.3298    -0.0000
  4 C      5.9762     6.0000     0.0238     3.7342     3.7342     0.0000
  5 C      6.2924     6.0000    -0.2924     3.8180     3.8180     0.0000
  6 C      6.3278     6.0000    -0.3278     3.8042     3.8042    -0.0000
  7 H      0.7714     1.0000     0.2286     0.9227     0.9227    -0.0000
  8 H      0.7731     1.0000     0.2269     0.9197     0.9197     0.0000
  9 H      0.7652     1.0000     0.2348     0.9114     0.9114    -0.0000
 10 C      5.9762     6.0000     0.0238     3.7342     3.7342     0.0000
 11 C      6.2924     6.0000    -0.2924     3.8180     3.8180    -0.0000
 12 C      6.3278     6.0000    -0.3278     3.8042     3.8042    -0.0000
 13 H      0.7652     1.0000     0.2348     0.9114     0.9114    -0.0000
 14 H      0.7731     1.0000     0.2269     0.9197     0.9197    -0.0000
 15 H      0.7714     1.0000     0.2286     0.9227     0.9227    -0.0000

  Mayer bond orders larger than 0.100000
B(  0-O ,  1-C ) :   1.0713 B(  0-O , 10-C ) :   1.1249 B(  1-C ,  2-C ) :   0.9623 
B(  1-C , 12-C ) :   1.5673 B(  2-C ,  3-O ) :   1.0713 B(  2-C ,  6-C ) :   1.5673 
B(  3-O ,  4-C ) :   1.1249 B(  4-C ,  5-C ) :   1.6178 B(  4-C ,  9-H ) :   0.9163 
B(  5-C ,  6-C ) :   1.2864 B(  5-C ,  8-H ) :   0.9209 B(  6-C ,  7-H ) :   0.9279 
B( 10-C , 11-C ) :   1.6178 B( 10-C , 13-H ) :   0.9163 B( 11-C , 12-C ) :   1.2864 
B( 11-C , 14-H ) :   0.9209 B( 12-C , 15-H ) :   0.9279 

-------
TIMINGS
-------

Total SCF time: 0 days 0 hours 1 min 56 sec 

Total time                  ....     116.992 sec
Sum of individual times     ....     109.228 sec  ( 93.4%)

Fock matrix formation       ....      92.688 sec  ( 79.2%)
  Split-RI-J                ....      10.693 sec  ( 11.5% of F)
  Chain of spheres X        ....      43.867 sec  ( 47.3% of F)
  XC integration            ....      21.832 sec  ( 23.6% of F)
    Basis function eval.    ....       4.568 sec  ( 20.9% of XC)
    Density eval.           ....       2.766 sec  ( 12.7% of XC)
    XC-Functional eval.     ....       1.592 sec  (  7.3% of XC)
    XC-Potential eval.      ....       1.935 sec  (  8.9% of XC)
Diagonalization             ....       1.052 sec  (  0.9%)
Density matrix formation    ....       0.124 sec  (  0.1%)
Population analysis         ....       0.820 sec  (  0.7%)
Initial guess               ....       0.110 sec  (  0.1%)
Orbital Transformation      ....       0.000 sec  (  0.0%)
Orbital Orthonormalization  ....       0.000 sec  (  0.0%)
DIIS solution               ....       1.775 sec  (  1.5%)
SOSCF solution              ....       1.319 sec  (  1.1%)
Grid generation             ....      11.340 sec  (  9.7%)

Maximum memory used throughout the entire SCF-calculation: 57.2 MB


-------------------------------------------------------------------------------
                          DFT DISPERSION CORRECTION                            
                                                                               
                              DFTD3 V3.1  Rev 1                                
                          USING Becke-Johnson damping                          
-------------------------------------------------------------------------------
The PBEh-3c composite method is recognized
Using three-body term ABC
Active option DFTDOPT                   ...         4   

molecular C6(AA) [au] = 3120.589381 


            DFT-D V3
 parameters
 s6 scaling factor         :     1.0000 
 a1 scaling factor         :     0.4860 
 s8 scaling factor         :     0.0000 
 a2 scaling factor         :     4.5000 
 Damping factor alpha9(ATM):    16.0000 
 ad hoc parameters k1-k3   :    16.0000     1.3333    -4.0000 

 Edisp/kcal,au: -5.201422832367  -0.008288994019 
 E6   /kcal   :  -5.197575072 
 E8   /kcal   :  -0.000000000 
 E6(ABC)      :  -0.003847761 
 % E8         :   0.000000000 
 % E6(ABC)    :   0.073975155 

-------------------------   ----------------
Dispersion correction           -0.008288994
-------------------------   ----------------

------------------   -----------------
gCP correction             0.028476297
------------------   -----------------

-------------------------   --------------------
FINAL SINGLE POINT ENERGY      -457.861358574636
-------------------------   --------------------


                            ***************************************
                            *     ORCA property calculations      *
                            ***************************************

                                    ---------------------
                                    Active property flags
                                    ---------------------
   (+) Dipole Moment


------------------------------------------------------------------------------
                       ORCA ELECTRIC PROPERTIES CALCULATION
------------------------------------------------------------------------------

Dipole Moment Calculation                       ... on
Quadrupole Moment Calculation                   ... off
Polarizability Calculation                      ... off
GBWName                                         ... pbeh-3c.gbw
Electron density                                ... pbeh-3c.scfp
The origin for moment calculation is the CENTER OF MASS  = ( 0.000000,  0.000000 -0.250852)

-------------
DIPOLE MOMENT
-------------
                                X             Y             Z
Electronic contribution:     -0.00000       0.00000      -1.55321
Nuclear contribution   :     -0.00000       0.00000       1.80480
                        -----------------------------------------
Total Dipole Moment    :     -0.00000       0.00000       0.25159
                        -----------------------------------------
Magnitude (a.u.)       :      0.25159
Magnitude (Debye)      :      0.63949



--------------------
Rotational spectrum 
--------------------
 
Rotational constants in cm-1:     0.156052     0.027536     0.026431 
Rotational constants in MHz :  4678.309526   825.510603   792.393109 

 Dipole components along the rotational axes: 
x,y,z [a.u.] :     0.000000    -0.000000     0.251591 
x,y,z [Debye]:     0.000000    -0.000000     0.639493 

 

Timings for individual modules:

Sum of individual times         ...      120.947 sec (=   2.016 min)
GTO integral calculation        ...        2.733 sec (=   0.046 min)   2.3 %
SCF iterations                  ...      118.214 sec (=   1.970 min)  97.7 %
                             ****ORCA TERMINATED NORMALLY****
TOTAL RUN TIME: 0 days 0 hours 2 minutes 3 seconds 548 msec
