
                                 *****************
                                 * O   R   C   A *
                                 *****************

                                            #,                                       
                                            ###                                      
                                            ####                                     
                                            #####                                    
                                            ######                                   
                                           ########,                                 
                                     ,,################,,,,,                         
                               ,,#################################,,                 
                          ,,##########################################,,             
                       ,#########################################, ''#####,          
                    ,#############################################,,   '####,        
                  ,##################################################,,,,####,       
                ,###########''''           ''''###############################       
              ,#####''   ,,,,##########,,,,          '''####'''          '####       
            ,##' ,,,,###########################,,,                        '##       
           ' ,,###''''                  '''############,,,                           
         ,,##''                                '''############,,,,        ,,,,,,###''
      ,#''                                            '''#######################'''  
     '                                                          ''''####''''         
             ,#######,   #######,   ,#######,      ##                                
            ,#'     '#,  ##    ##  ,#'     '#,    #''#        ######   ,####,        
            ##       ##  ##   ,#'  ##            #'  '#       #        #'  '#        
            ##       ##  #######   ##           ,######,      #####,   #    #        
            '#,     ,#'  ##    ##  '#,     ,#' ,#      #,         ##   #,  ,#        
             '#######'   ##     ##  '#######'  #'      '#     #####' # '####'        



                  #######################################################
                  #                        -***-                        #
                  #          Department of theory and spectroscopy      #
                  #    Directorship and core code : Frank Neese         #
                  #        Max Planck Institute fuer Kohlenforschung    #
                  #                Kaiser Wilhelm Platz 1               #
                  #                 D-45470 Muelheim/Ruhr               #
                  #                      Germany                        #
                  #                                                     #
                  #                  All rights reserved                #
                  #                        -***-                        #
                  #######################################################


                         Program Version 5.0.3 -  RELEASE  -


 With contributions from (in alphabetic order):
   Daniel Aravena         : Magnetic Suceptibility
   Michael Atanasov       : Ab Initio Ligand Field Theory (pilot matlab implementation)
   Alexander A. Auer      : GIAO ZORA, VPT2 properties, NMR spectrum
   Ute Becker             : Parallelization
   Giovanni Bistoni       : ED, misc. LED, open-shell LED, HFLD
   Martin Brehm           : Molecular dynamics
   Dmytro Bykov           : SCF Hessian
   Vijay G. Chilkuri      : MRCI spin determinant printing, contributions to CSF-ICE
   Dipayan Datta          : RHF DLPNO-CCSD density
   Achintya Kumar Dutta   : EOM-CC, STEOM-CC
   Dmitry Ganyushin       : Spin-Orbit,Spin-Spin,Magnetic field MRCI
   Miquel Garcia          : C-PCM and meta-GGA Hessian, CC/C-PCM, Gaussian charge scheme
   Yang Guo               : DLPNO-NEVPT2, F12-NEVPT2, CIM, IAO-localization
   Andreas Hansen         : Spin unrestricted coupled pair/coupled cluster methods
   Benjamin Helmich-Paris : MC-RPA, TRAH-SCF, COSX integrals
   Lee Huntington         : MR-EOM, pCC
   Robert Izsak           : Overlap fitted RIJCOSX, COSX-SCS-MP3, EOM
   Marcus Kettner         : VPT2
   Christian Kollmar      : KDIIS, OOCD, Brueckner-CCSD(T), CCSD density, CASPT2, CASPT2-K
   Simone Kossmann        : Meta GGA functionals, TD-DFT gradient, OOMP2, MP2 Hessian
   Martin Krupicka        : Initial AUTO-CI
   Lucas Lang             : DCDCAS
   Marvin Lechner         : AUTO-CI (C++ implementation), FIC-MRCC
   Dagmar Lenk            : GEPOL surface, SMD
   Dimitrios Liakos       : Extrapolation schemes; Compound Job, initial MDCI parallelization
   Dimitrios Manganas     : Further ROCIS development; embedding schemes
   Dimitrios Pantazis     : SARC Basis sets
   Anastasios Papadopoulos: AUTO-CI, single reference methods and gradients
   Taras Petrenko         : DFT Hessian,TD-DFT gradient, ASA, ECA, R-Raman, ABS, FL, XAS/XES, NRVS
   Peter Pinski           : DLPNO-MP2, DLPNO-MP2 Gradient
   Christoph Reimann      : Effective Core Potentials
   Marius Retegan         : Local ZFS, SOC
   Christoph Riplinger    : Optimizer, TS searches, QM/MM, DLPNO-CCSD(T), (RO)-DLPNO pert. Triples
   Tobias Risthaus        : Range-separated hybrids, TD-DFT gradient, RPA, STAB
   Michael Roemelt        : Original ROCIS implementation
   Masaaki Saitow         : Open-shell DLPNO-CCSD energy and density
   Barbara Sandhoefer     : DKH picture change effects
   Avijit Sen             : IP-ROCIS
   Kantharuban Sivalingam : CASSCF convergence, NEVPT2, FIC-MRCI
   Bernardo de Souza      : ESD, SOC TD-DFT
   Georgi Stoychev        : AutoAux, RI-MP2 NMR, DLPNO-MP2 response
   Willem Van den Heuvel  : Paramagnetic NMR
   Boris Wezisla          : Elementary symmetry handling
   Frank Wennmohs         : Technical directorship


 We gratefully acknowledge several colleagues who have allowed us to
 interface, adapt or use parts of their codes:
   Stefan Grimme, W. Hujo, H. Kruse, P. Pracht,  : VdW corrections, initial TS optimization,
                  C. Bannwarth, S. Ehlert          DFT functionals, gCP, sTDA/sTD-DF
   Ed Valeev, F. Pavosevic, A. Kumar             : LibInt (2-el integral package), F12 methods
   Garnet Chan, S. Sharma, J. Yang, R. Olivares  : DMRG
   Ulf Ekstrom                                   : XCFun DFT Library
   Mihaly Kallay                                 : mrcc  (arbitrary order and MRCC methods)
   Jiri Pittner, Ondrej Demel                    : Mk-CCSD
   Frank Weinhold                                : gennbo (NPA and NBO analysis)
   Christopher J. Cramer and Donald G. Truhlar   : smd solvation model
   Lars Goerigk                                  : TD-DFT with DH, B97 family of functionals
   V. Asgeirsson, H. Jonsson                     : NEB implementation
   FAccTs GmbH                                   : IRC, NEB, NEB-TS, DLPNO-Multilevel, CI-OPT
                                                   MM, QMMM, 2- and 3-layer-ONIOM, Crystal-QMMM,
                                                   LR-CPCM, SF, NACMEs, symmetry and pop. for TD-DFT,
                                                   nearIR, NL-DFT gradient (VV10), updates on ESD,
                                                   ML-optimized integration grids
   S Lehtola, MJT Oliveira, MAL Marques          : LibXC Library
   Liviu Ungur et al                             : ANISO software


 Your calculation uses the libint2 library for the computation of 2-el integrals
 For citations please refer to: http://libint.valeyev.net

 Your ORCA version has been built with support for libXC version: 5.1.0
 For citations please refer to: https://tddft.org/programs/libxc/

 This ORCA versions uses:
   CBLAS   interface :  Fast vector & matrix operations
   LAPACKE interface :  Fast linear algebra routines
   SCALAPACK package :  Parallel linear algebra routines
   Shared memory     :  Shared parallel matrices
   BLAS/LAPACK       :  OpenBLAS 0.3.15  USE64BITINT DYNAMIC_ARCH NO_AFFINITY Haswell SINGLE_THREADED
        Core in use  :  Haswell
   Copyright (c) 2011-2014, The OpenBLAS Project




***************************************
The coordinates will be read from file: C2H4OH_2.xyz
***************************************


Your calculation utilizes the geometrical counterpoise correction gCP
Please cite in your paper:
H.Kruse, S. Grimme J.Chem.Phys., 136, (2012), 154101 
   

Your calculation utilizes the atom-pairwise dispersion correction
with the Becke-Johnson damping scheme (D3BJ)
Cite in your paper:
S.Grimme, S.Ehrlich, L.Goerigk, J Comput Chem, (2011), 32, 1456–1465 
S.Grimme, J.Antony, S.Ehrlich and H.Krieg, J.Chem.Phys., 132, (2010), 154104 
   

Your calculation employs the composite approach PBEh-3c.
Please cite in your paper:
S. Grimme, J. G. Brandenburg, C. Bannwarth, A. Hansen J.Chem.Phys., 143, (2015), 054107 
   

================================================================================

----- Orbital basis set information -----
Your calculation utilizes the basis: def2-mSVP

----- AuxJ basis set information -----
Your calculation utilizes the auxiliary basis: def2/J
   F. Weigend, Phys. Chem. Chem. Phys. 8, 1057 (2006).

================================================================================
                                        WARNINGS
                       Please study these warnings very carefully!
================================================================================


INFO   : the flag for use of the SHARK integral package has been found!

================================================================================
                                       INPUT FILE
================================================================================
NAME = pbeh-3c.inp
|  1> ! PBEh-3c def2/J TightSCF DefGrid3
|  2> 
|  3> %maxcore 60000
|  4> 
|  5> %pal
|  6> nprocs 4
|  7> end
|  8> 
|  9> *xyzfile 0 1 C2H4OH_2.xyz
| 10> 
| 11>                          ****END OF INPUT****
================================================================================

                       ****************************
                       * Single Point Calculation *
                       ****************************

---------------------------------
CARTESIAN COORDINATES (ANGSTROEM)
---------------------------------
  C     -1.445284   -0.643100   -1.249193
  H     -1.042978   -0.189339   -2.175501
  H     -2.547005   -0.545117   -1.275128
  C     -0.895559    0.091818   -0.034731
  H     -1.305571    1.116225   -0.043831
  H     -1.289393   -0.397711    0.871925
  C      0.635105    0.136855    0.012354
  H      1.022200    0.660942   -0.877313
  H      1.038577   -0.885668   -0.017415
  C      1.158423    0.840127    1.254653
  H      0.809756    0.307866    2.160848
  H      0.760038    1.873067    1.301067
  O     -1.064558   -2.023946   -1.154448
  H     -1.348525   -2.471386   -1.968396
  O      2.591972    0.853485    1.192574
  H      2.922799    1.275882    2.002535

----------------------------
CARTESIAN COORDINATES (A.U.)
----------------------------
  NO LB      ZA    FRAG     MASS         X           Y           Z
   0 C     6.0000    0    12.011   -2.731191   -1.215282   -2.360633
   1 H     1.0000    0     1.008   -1.970942   -0.357800   -4.111101
   2 H     1.0000    0     1.008   -4.813142   -1.030122   -2.409642
   3 C     6.0000    0    12.011   -1.692361    0.173511   -0.065633
   4 H     1.0000    0     1.008   -2.467171    2.109359   -0.082828
   5 H     1.0000    0     1.008   -2.436600   -0.751564    1.647700
   6 C     6.0000    0    12.011    1.200175    0.258619    0.023345
   7 H     1.0000    0     1.008    1.931679    1.248999   -1.657881
   8 H     1.0000    0     1.008    1.962626   -1.673670   -0.032909
   9 C     6.0000    0    12.011    2.189103    1.587610    2.370950
  10 H     1.0000    0     1.008    1.530217    0.581782    4.083411
  11 H     1.0000    0     1.008    1.436264    3.539584    2.458661
  12 O     8.0000    0    15.999   -2.011722   -3.824704   -2.181591
  13 H     1.0000    0     1.008   -2.548343   -4.670242   -3.719730
  14 O     8.0000    0    15.999    4.898117    1.612853    2.253638
  15 H     1.0000    0     1.008    5.523291    2.411067    3.784243

--------------------------------
INTERNAL COORDINATES (ANGSTROEM)
--------------------------------
 C      0   0   0     0.000000000000     0.00000000     0.00000000
 H      1   0   0     1.107156065215     0.00000000     0.00000000
 H      1   2   0     1.106373490494   107.81428452     0.00000000
 C      1   2   3     1.522241624999   109.77962726   240.65201544
 H      4   1   2     1.103449788484   107.90494614    66.54507933
 H      4   1   2     1.103073068647   108.21367925   181.55927179
 C      4   1   2     1.532050441774   113.54778438   304.17553361
 H      7   4   1     1.102731197843   109.87023454    60.59982375
 H      7   4   1     1.099649429489   109.78007359   303.26921417
 C      7   4   1     1.520447164350   112.49381945   181.68100919
 H     10   7   4     1.107276714268   109.75273027    60.14436977
 H     10   7   4     1.108074947069   109.97797781   302.08449756
 O      1   2   3     1.435502081154   110.67616570   121.00771109
 H     13   1   2     0.971262527251   108.07636369   305.43442662
 O     10   7   4     1.434953977372   108.22853482   181.12709004
 H     15  10   7     0.971546779091   107.94860336   181.94142360

---------------------------
INTERNAL COORDINATES (A.U.)
---------------------------
 C      0   0   0     0.000000000000     0.00000000     0.00000000
 H      1   0   0     2.092221750766     0.00000000     0.00000000
 H      1   2   0     2.090742898864   107.81428452     0.00000000
 C      1   2   3     2.876619780903   109.77962726   240.65201544
 H      4   1   2     2.085217902768   107.90494614    66.54507933
 H      4   1   2     2.084506005447   108.21367925   181.55927179
 C      4   1   2     2.895155758306   113.54778438   304.17553361
 H      7   4   1     2.083859963254   109.87023454    60.59982375
 H      7   4   1     2.078036265057   109.78007359   303.26921417
 C      7   4   1     2.873228741719   112.49381945   181.68100919
 H     10   7   4     2.092449744435   109.75273027    60.14436977
 H     10   7   4     2.093958185819   109.97797781   302.08449756
 O      1   2   3     2.712705798055   110.67616570   121.00771109
 H     13   1   2     1.835420180644   108.07636369   305.43442662
 O     10   7   4     2.711670032014   108.22853482   181.12709004
 H     15  10   7     1.835957338776   107.94860336   181.94142360

---------------------
BASIS SET INFORMATION
---------------------
There are 3 groups of distinct atoms

 Group   1 Type C   : 8s4p1d contracted to 4s2p1d pattern {5111/31/1}
 Group   2 Type H   : 4s contracted to 2s pattern {31}
 Group   3 Type O   : 8s4p1d contracted to 4s2p1d pattern {5111/31/1}

Atom   0C    basis set group =>   1
Atom   1H    basis set group =>   2
Atom   2H    basis set group =>   2
Atom   3C    basis set group =>   1
Atom   4H    basis set group =>   2
Atom   5H    basis set group =>   2
Atom   6C    basis set group =>   1
Atom   7H    basis set group =>   2
Atom   8H    basis set group =>   2
Atom   9C    basis set group =>   1
Atom  10H    basis set group =>   2
Atom  11H    basis set group =>   2
Atom  12O    basis set group =>   3
Atom  13H    basis set group =>   2
Atom  14O    basis set group =>   3
Atom  15H    basis set group =>   2
---------------------------------
AUXILIARY/J BASIS SET INFORMATION
---------------------------------
There are 3 groups of distinct atoms

 Group   1 Type C   : 12s5p4d2f1g contracted to 6s4p3d1f1g pattern {711111/2111/211/2/1}
 Group   2 Type H   : 5s2p1d contracted to 3s1p1d pattern {311/2/1}
 Group   3 Type O   : 12s5p4d2f1g contracted to 6s4p3d1f1g pattern {711111/2111/211/2/1}

Atom   0C    basis set group =>   1
Atom   1H    basis set group =>   2
Atom   2H    basis set group =>   2
Atom   3C    basis set group =>   1
Atom   4H    basis set group =>   2
Atom   5H    basis set group =>   2
Atom   6C    basis set group =>   1
Atom   7H    basis set group =>   2
Atom   8H    basis set group =>   2
Atom   9C    basis set group =>   1
Atom  10H    basis set group =>   2
Atom  11H    basis set group =>   2
Atom  12O    basis set group =>   3
Atom  13H    basis set group =>   2
Atom  14O    basis set group =>   3
Atom  15H    basis set group =>   2


           ************************************************************
           *        Program running with 4 parallel MPI-processes     *
           *              working on a common directory               *
           ************************************************************
------------------------------------------------------------------------------
                           ORCA GTO INTEGRAL CALCULATION
                           -- RI-GTO INTEGRALS CHOSEN --
------------------------------------------------------------------------------
------------------------------------------------------------------------------
                   ___                                                        
                  /   \      - P O W E R E D   B Y -                         
                 /     \                                                     
                 |  |  |   _    _      __       _____    __    __             
                 |  |  |  | |  | |    /  \     |  _  \  |  |  /  |          
                  \  \/   | |  | |   /    \    | | | |  |  | /  /          
                 / \  \   | |__| |  /  /\  \   | |_| |  |  |/  /          
                |  |  |   |  __  | /  /__\  \  |    /   |      \           
                |  |  |   | |  | | |   __   |  |    \   |  |\   \          
                \     /   | |  | | |  |  |  |  | |\  \  |  | \   \       
                 \___/    |_|  |_| |__|  |__|  |_| \__\ |__|  \__/        
                                                                              
                      - O R C A' S   B I G   F R I E N D -                    
                                      &                                       
                       - I N T E G R A L  F E E D E R -                       
                                                                              
 v1 FN, 2020, v2 2021                                                         
------------------------------------------------------------------------------


Reading SHARK input file pbeh-3c.SHARKINP.tmp ... ok
----------------------
SHARK INTEGRAL PACKAGE
----------------------

Number of atoms                             ...     16
Number of basis functions                   ...    110
Number of shells                            ...     62
Maximum angular momentum                    ...      2
Integral batch strategy                     ... SHARK/LIBINT Hybrid
RI-J (if used) integral strategy            ... SPLIT-RIJ (Revised 2003 algorithm where possible)
Printlevel                                  ...      1
Contraction scheme used                     ... SEGMENTED contraction
Coulomb Range Separation                    ... NOT USED
Exchange Range Separation                   ... NOT USED
Finite Nucleus Model                        ... NOT USED
Auxiliary Coulomb fitting basis             ... AVAILABLE
   # of basis functions in Aux-J            ...    404
   # of shells in Aux-J                     ...    140
   Maximum angular momentum in Aux-J        ...      4
Auxiliary J/K fitting basis                 ... NOT available
Auxiliary Correlation fitting basis         ... NOT available
Auxiliary 'external' fitting basis          ... NOT available
Integral threshold                          ...     2.500000e-11
Primitive cut-off                           ...     2.500000e-12
Primitive pair pre-selection threshold      ...     2.500000e-12

Calculating pre-screening integrals         ... done (  0.0 sec) Dimension = 62
Organizing shell pair data                  ... done (  0.1 sec)
Shell pair information
Total number of shell pairs                 ...      1953
Shell pairs after pre-screening             ...      1757
Total number of primitive shell pairs       ...      7129
Primitive shell pairs kept                  ...      4673
          la=0 lb=0:    861 shell pairs
          la=1 lb=0:    499 shell pairs
          la=1 lb=1:     76 shell pairs
          la=2 lb=0:    233 shell pairs
          la=2 lb=1:     69 shell pairs
          la=2 lb=2:     19 shell pairs

Calculating one electron integrals          ... done (  0.0 sec)
Calculating RI/J V-Matrix + Cholesky decomp.... done (  0.3 sec)
Calculating Nuclear repulsion               ... done (  0.0 sec) ENN=    247.344640745965 Eh

SHARK setup successfully completed in   1.6 seconds

Maximum memory used throughout the entire GTOINT-calculation: 10.5 MB


           ************************************************************
           *        Program running with 4 parallel MPI-processes     *
           *              working on a common directory               *
           ************************************************************
-------------------------------------------------------------------------------
                                 ORCA SCF
-------------------------------------------------------------------------------

------------
SCF SETTINGS
------------
Hamiltonian:
 Density Functional     Method          .... DFT(GTOs)
 Exchange Functional    Exchange        .... PBE
   PBE kappa parameter   XKappa         ....  1.024500
   PBE mue parameter    XMuePBE         ....  0.123457
 Correlation Functional Correlation     .... PBE
   PBE beta parameter  CBetaPBE         ....  0.030000
 LDA part of GGA corr.  LDAOpt          .... PW91-LDA
 Gradients option       PostSCFGGA      .... off
 Hybrid DFT is turned on
   Fraction HF Exchange ScalHFX         ....  0.420000
   Scaling of DF-GGA-X  ScalDFX         ....  0.580000
   Scaling of DF-GGA-C  ScalDFC         ....  1.000000
   Scaling of DF-LDA-C  ScalLDAC        ....  1.000000
   Perturbative correction              ....  0.000000
   Density functional embedding theory  .... OFF
 RI-approximation to the Coulomb term is turned on
   Number of AuxJ basis functions       .... 404
   RIJ-ON(X) (HFX calculated with O(N)) .... on
   Number of AuxJ basis functions       .... 404
   RIJ-COSX (HFX calculated with COS-X)).... on


General Settings:
 Integral files         IntName         .... pbeh-3c
 Hartree-Fock type      HFTyp           .... RHF
 Total Charge           Charge          ....    0
 Multiplicity           Mult            ....    1
 Number of Electrons    NEL             ....   50
 Basis Dimension        Dim             ....  110
 Nuclear Repulsion      ENuc            ....    247.3446407460 Eh

Convergence Acceleration:
 DIIS                   CNVDIIS         .... on
   Start iteration      DIISMaxIt       ....    12
   Startup error        DIISStart       ....  0.200000
   # of expansion vecs  DIISMaxEq       ....     5
   Bias factor          DIISBfac        ....   1.050
   Max. coefficient     DIISMaxC        ....  10.000
 Trust-Rad. Augm. Hess. CNVTRAH         .... auto
   Auto Start mean grad. ratio tolernc. ....  1.125000
   Auto Start start iteration           ....    20
   Auto Start num. interpolation iter.  ....    10
   Max. Number of Micro iterations      ....    16
   Max. Number of Macro iterations      .... Maxiter - #DIIS iter
   Number of Davidson start vectors     ....     2
   Converg. threshold I  (grad. norm)   ....   1.000e-05
   Converg. threshold II (energy diff.) ....   1.000e-08
   Grad. Scal. Fac. for Micro threshold ....   0.100
   Minimum threshold for Micro iter.    ....   0.010
   NR start threshold (gradient norm)   ....   0.001
   Initial trust radius                 ....   0.400
   Minimum AH scaling param. (alpha)    ....   1.000
   Maximum AH scaling param. (alpha)    .... 1000.000
   Orbital update algorithm             .... Taylor
   White noise on init. David. guess    .... on
   Maximum white noise                  ....   0.010
   Quad. conv. algorithm                .... NR
   COSX micro iterations for RIJONX calc.... off
 SOSCF                  CNVSOSCF        .... on
   Start iteration      SOSCFMaxIt      ....   150
   Startup grad/error   SOSCFStart      ....  0.003300
 Level Shifting         CNVShift        .... on
   Level shift para.    LevelShift      ....    0.2500
   Turn off err/grad.   ShiftErr        ....    0.0010
 Zerner damping         CNVZerner       .... off
 Static damping         CNVDamp         .... on
   Fraction old density DampFac         ....    0.7000
   Max. Damping (<1)    DampMax         ....    0.9800
   Min. Damping (>=0)   DampMin         ....    0.0000
   Turn off err/grad.   DampErr         ....    0.1000
 Fernandez-Rico         CNVRico         .... off

SCF Procedure:
 Maximum # iterations   MaxIter         ....   125
 SCF integral mode      SCFMode         .... Direct
   Integral package                     .... SHARK and LIBINT hybrid scheme
 Reset frequency        DirectResetFreq ....    20
 Integral Threshold     Thresh          ....  2.500e-11 Eh
 Primitive CutOff       TCut            ....  2.500e-12 Eh

Convergence Tolerance:
 Convergence Check Mode ConvCheckMode   .... Total+1el-Energy
 Convergence forced     ConvForced      .... 0
 Energy Change          TolE            ....  1.000e-08 Eh
 1-El. energy change                    ....  1.000e-05 Eh
 Orbital Gradient       TolG            ....  1.000e-05
 Orbital Rotation angle TolX            ....  1.000e-05
 DIIS Error             TolErr          ....  5.000e-07


Diagonalization of the overlap matrix:
Smallest eigenvalue                        ... 5.257e-03
Time for diagonalization                   ...    0.002 sec
Threshold for overlap eigenvalues          ... 1.000e-08
Number of eigenvalues below threshold      ... 0
Time for construction of square roots      ...    0.204 sec
Total time needed                          ...    0.207 sec

--------------------------------
INITIAL GUESS: MINIMAL BASIS EHT
--------------------------------
The minimal basis has 40 functions
EHT matrix was diagonalized
Basis set overlap was calculated now projecting the orbitals
Using GuessMode=FMatrix for the initial guess
C*T matrix was formed
Effective Fockian was calculated
Effective Fockian was diagonalized
Initial density was built
                      ------------------
                      INITIAL GUESS DONE
                      ------------------
-------------------
DFT GRID GENERATION
-------------------

General Integration Accuracy     IntAcc      ... 4.959
Radial Grid Type                 RadialGrid  ... OptM3 with GC (2021)
Angular Grid (max. ang.)         AngularGrid ... 6 (Lebedev-590)
Angular grid pruning method      GridPruning ... 4 (adaptive)
Weight generation scheme         WeightScheme... Becke
Basis function cutoff            BFCut       ... 1.0000e-11
Integration weight cutoff        WCut        ... 1.0000e-14
Angular grids for H and He will be reduced by one unit
Partially contracted basis set               ... off
Rotationally invariant grid construction     ... off

Total number of grid points                  ...   173316
Total number of batches                      ...     2716
Average number of points per batch           ...       63
Average number of grid points per atom       ...    10832
Time for grid setup =    2.782 sec

--------------------
COSX GRID GENERATION
--------------------

GRIDX 1
-------
General Integration Accuracy     IntAcc      ... 4.020
Radial Grid Type                 RadialGrid  ... OptM3 with GC (2021)
Angular Grid (max. ang.)         AngularGrid ... 2 (Lebedev-110)
Angular grid pruning method      GridPruning ... 4 (adaptive)
Weight generation scheme         WeightScheme... Becke
Basis function cutoff            BFCut       ... 1.0000e-11
Integration weight cutoff        WCut        ... 1.0000e-14
Angular grids for H and He will be reduced by one unit
Partially contracted basis set               ... on
Rotationally invariant grid construction     ... off

Total number of grid points                  ...    18534
Total number of batches                      ...      299
Average number of points per batch           ...       61
Average number of grid points per atom       ...     1158
UseSFitting                                  ... on

GRIDX 2
-------
General Integration Accuracy     IntAcc      ... 4.338
Radial Grid Type                 RadialGrid  ... OptM3 with GC (2021)
Angular Grid (max. ang.)         AngularGrid ... 3 (Lebedev-194)
Angular grid pruning method      GridPruning ... 4 (adaptive)
Weight generation scheme         WeightScheme... Becke
Basis function cutoff            BFCut       ... 1.0000e-11
Integration weight cutoff        WCut        ... 1.0000e-14
Angular grids for H and He will be reduced by one unit
Partially contracted basis set               ... on
Rotationally invariant grid construction     ... off

Total number of grid points                  ...    40520
Total number of batches                      ...      641
Average number of points per batch           ...       63
Average number of grid points per atom       ...     2532
UseSFitting                                  ... on

GRIDX 3
-------
General Integration Accuracy     IntAcc      ... 4.871
Radial Grid Type                 RadialGrid  ... OptM3 with GC (2021)
Angular Grid (max. ang.)         AngularGrid ... 4 (Lebedev-302)
Angular grid pruning method      GridPruning ... 4 (adaptive)
Weight generation scheme         WeightScheme... Becke
Basis function cutoff            BFCut       ... 1.0000e-11
Integration weight cutoff        WCut        ... 1.0000e-14
Angular grids for H and He will be reduced by one unit
Partially contracted basis set               ... on
Rotationally invariant grid construction     ... off

Total number of grid points                  ...    79984
Total number of batches                      ...     1257
Average number of points per batch           ...       63
Average number of grid points per atom       ...     4999
UseSFitting                                  ... on

Time for X-Grid setup             =    3.628 sec

--------------
SCF ITERATIONS
--------------
ITER       Energy         Delta-E        Max-DP      RMS-DP      [F,P]     Damp
               ***  Starting incremental Fock matrix formation  ***
  0   -307.3947210547   0.000000000000 0.17319496  0.00627790  0.4983129 0.7000
  1   -307.6954208628  -0.300699808124 0.09338001  0.00364582  0.2762651 0.7000
                               ***Turning on DIIS***
  2   -307.8577825749  -0.162361712091 0.04448299  0.00197774  0.1946084 0.7000
  3   -307.9681980557  -0.110415480795 0.02347121  0.00119306  0.1369485 0.7000
  4   -308.0465510639  -0.078353008222 0.05334281  0.00297356  0.0960046 0.0000
  5   -308.2344963190  -0.187945255011 0.00851029  0.00032317  0.0094966 0.0000
  6   -308.2347067552  -0.000210436279 0.00256502  0.00008885  0.0051610 0.0000
                      *** Initiating the SOSCF procedure ***
                           *** Shutting down DIIS ***
                      *** Re-Reading the Fockian *** 
                      *** Removing any level shift *** 
ITER      Energy       Delta-E        Grad      Rot      Max-DP    RMS-DP
  7   -308.23478115  -0.0000743901  0.000340  0.000340  0.001563  0.000061
               *** Restarting incremental Fock matrix formation ***
  8   -308.23480556  -0.0000244158  0.000053  0.000095  0.000210  0.000010
  9   -308.23480572  -0.0000001569  0.000038  0.000033  0.000094  0.000004
 10   -308.23480579  -0.0000000670  0.000008  0.000005  0.000023  0.000001
 11   -308.23480579  -0.0000000016  0.000007  0.000003  0.000012  0.000000
                  ***Gradient check signals convergence***
              ***Rediagonalizing the Fockian in SOSCF/NRSCF***

               *****************************************************
               *                     SUCCESS                       *
               *           SCF CONVERGED AFTER  12 CYCLES          *
               *****************************************************

Old exchange energy                            =    -17.109959082 Eh
New exchange energy                            =    -17.109966042 Eh
Exchange energy change after final integration =     -0.000006961 Eh
Total energy after final integration           =   -308.234812748 Eh
Final COS-X integration done in                =     2.522 sec

----------------
TOTAL SCF ENERGY
----------------

Total Energy       :         -308.23481275 Eh           -8387.49567 eV

Components:
Nuclear Repulsion  :          247.34464075 Eh            6730.58985 eV
Electronic Energy  :         -555.57945349 Eh          -15118.08552 eV
One Electron Energy:         -910.14029321 Eh          -24766.17647 eV
Two Electron Energy:          354.56083972 Eh            9648.09095 eV
Max COSX asymmetry :            0.00000156 Eh               0.00004 eV

Virial components:
Potential Energy   :         -614.05585862 Eh          -16709.30940 eV
Kinetic Energy     :          305.82104587 Eh            8321.81373 eV
Virial Ratio       :            2.00789274


DFT components:
N(Alpha)           :       24.999998738033 electrons
N(Beta)            :       24.999998738033 electrons
N(Total)           :       49.999997476066 electrons
E(X)               :      -22.734342986405 Eh       
E(C)               :       -2.173657901080 Eh       
E(XC)              :      -24.908000887486 Eh       
DFET-embed. en.    :        0.000000000000 Eh       

---------------
SCF CONVERGENCE
---------------

  Last Energy change         ...   -2.6660e-10  Tolerance :   1.0000e-08
  Last MAX-Density change    ...    5.5511e-16  Tolerance :   1.0000e-07
  Last RMS-Density change    ...    4.3454e-17  Tolerance :   5.0000e-09
  Last Orbital Gradient      ...    7.0474e-07  Tolerance :   1.0000e-05
  Last Orbital Rotation      ...    1.0544e-06  Tolerance :   1.0000e-05

             **** THE GBW FILE WAS UPDATED (pbeh-3c.gbw) ****
             **** DENSITY pbeh-3c.scfp WAS UPDATED ****
             **** ENERGY FILE WAS UPDATED (pbeh-3c.en.tmp) ****
             **** THE GBW FILE WAS UPDATED (pbeh-3c.gbw) ****
             **** DENSITY pbeh-3c.scfp WAS UPDATED ****
----------------
ORBITAL ENERGIES
----------------

  NO   OCC          E(Eh)            E(eV) 
   0   2.0000     -19.483946      -530.1851 
   1   2.0000     -19.479679      -530.0690 
   2   2.0000     -10.484404      -285.2951 
   3   2.0000     -10.478945      -285.1466 
   4   2.0000     -10.435494      -283.9642 
   5   2.0000     -10.425360      -283.6885 
   6   2.0000      -1.113967       -30.3126 
   7   2.0000      -1.109476       -30.1904 
   8   2.0000      -0.877262       -23.8715 
   9   2.0000      -0.793300       -21.5868 
  10   2.0000      -0.690860       -18.7992 
  11   2.0000      -0.644729       -17.5440 
  12   2.0000      -0.577945       -15.7267 
  13   2.0000      -0.561606       -15.2821 
  14   2.0000      -0.526705       -14.3324 
  15   2.0000      -0.509664       -13.8687 
  16   2.0000      -0.470766       -12.8102 
  17   2.0000      -0.449860       -12.2413 
  18   2.0000      -0.430386       -11.7114 
  19   2.0000      -0.400263       -10.8917 
  20   2.0000      -0.388226       -10.5642 
  21   2.0000      -0.376386       -10.2420 
  22   2.0000      -0.366113        -9.9624 
  23   2.0000      -0.323159        -8.7936 
  24   2.0000      -0.317829        -8.6486 
  25   0.0000       0.126483         3.4418 
  26   0.0000       0.130729         3.5573 
  27   0.0000       0.153362         4.1732 
  28   0.0000       0.179353         4.8804 
  29   0.0000       0.193372         5.2619 
  30   0.0000       0.207431         5.6445 
  31   0.0000       0.213184         5.8010 
  32   0.0000       0.230235         6.2650 
  33   0.0000       0.235921         6.4197 
  34   0.0000       0.240699         6.5497 
  35   0.0000       0.247389         6.7318 
  36   0.0000       0.272444         7.4136 
  37   0.0000       0.288278         7.8445 
  38   0.0000       0.293036         7.9739 
  39   0.0000       0.317224         8.6321 
  40   0.0000       0.499114        13.5816 
  41   0.0000       0.534086        14.5332 
  42   0.0000       0.550198        14.9717 
  43   0.0000       0.568221        15.4621 
  44   0.0000       0.575562        15.6618 
  45   0.0000       0.616332        16.7712 
  46   0.0000       0.630383        17.1536 
  47   0.0000       0.673642        18.3307 
  48   0.0000       0.700725        19.0677 
  49   0.0000       0.715727        19.4759 
  50   0.0000       0.783933        21.3319 
  51   0.0000       0.798654        21.7325 
  52   0.0000       0.914557        24.8864 
  53   0.0000       0.939885        25.5756 
  54   0.0000       0.952563        25.9205 
  55   0.0000       0.954352        25.9692 
  56   0.0000       0.992116        26.9968 
  57   0.0000       1.010827        27.5060 
  58   0.0000       1.022396        27.8208 
  59   0.0000       1.037258        28.2252 
  60   0.0000       1.051596        28.6154 
  61   0.0000       1.064159        28.9572 
  62   0.0000       1.066344        29.0167 
  63   0.0000       1.143420        31.1140 
  64   0.0000       1.153790        31.3962 
  65   0.0000       1.156427        31.4680 
  66   0.0000       1.175269        31.9807 
  67   0.0000       1.280878        34.8545 
  68   0.0000       1.316364        35.8201 
  69   0.0000       1.322696        35.9924 
  70   0.0000       1.434463        39.0337 
  71   0.0000       1.470183        40.0057 
  72   0.0000       1.517062        41.2814 
  73   0.0000       1.590222        43.2721 
  74   0.0000       1.615200        43.9518 
  75   0.0000       1.706154        46.4268 
  76   0.0000       1.765387        48.0386 
  77   0.0000       1.807438        49.1829 
  78   0.0000       1.814172        49.3661 
  79   0.0000       1.868072        50.8328 
  80   0.0000       1.924840        52.3776 
  81   0.0000       1.953053        53.1453 
  82   0.0000       1.978972        53.8506 
  83   0.0000       2.003801        54.5262 
  84   0.0000       2.016707        54.8774 
  85   0.0000       2.041500        55.5520 
  86   0.0000       2.084284        56.7163 
  87   0.0000       2.114924        57.5500 
  88   0.0000       2.154227        58.6195 
  89   0.0000       2.225363        60.5552 
  90   0.0000       2.277824        61.9827 
  91   0.0000       2.353052        64.0298 
  92   0.0000       2.375427        64.6387 
  93   0.0000       2.446669        66.5773 
  94   0.0000       2.497977        67.9734 
  95   0.0000       2.528626        68.8074 
  96   0.0000       2.533396        68.9372 
  97   0.0000       2.554819        69.5202 
  98   0.0000       2.609159        70.9988 
  99   0.0000       2.651934        72.1628 
 100   0.0000       2.730744        74.3073 
 101   0.0000       2.814765        76.5937 
 102   0.0000       2.912969        79.2659 
 103   0.0000       2.941448        80.0409 
 104   0.0000      13.571664       369.3038 
 105   0.0000      13.826594       376.2407 
 106   0.0000      13.961422       379.9096 
 107   0.0000      14.066199       382.7607 
 108   0.0000      25.508339       694.1172 
 109   0.0000      25.545146       695.1188 

                    ********************************
                    * MULLIKEN POPULATION ANALYSIS *
                    ********************************

-----------------------
MULLIKEN ATOMIC CHARGES
-----------------------
   0 C :   -0.144911
   1 H :    0.175941
   2 H :    0.186165
   3 C :   -0.443860
   4 H :    0.202738
   5 H :    0.220476
   6 C :   -0.435210
   7 H :    0.211580
   8 H :    0.247493
   9 C :   -0.129457
  10 H :    0.173828
  11 H :    0.167611
  12 O :   -0.631370
  13 H :    0.415895
  14 O :   -0.629580
  15 H :    0.412661
Sum of atomic charges:    0.0000000

--------------------------------
MULLIKEN REDUCED ORBITAL CHARGES
--------------------------------
  0 C s       :     3.264218  s :     3.264218
      pz      :     1.037468  p :     2.813551
      px      :     1.058938
      py      :     0.717145
      dz2     :     0.013523  d :     0.067143
      dxz     :     0.005199
      dyz     :     0.015132
      dx2y2   :     0.020804
      dxy     :     0.012485
  1 H s       :     0.824059  s :     0.824059
  2 H s       :     0.813835  s :     0.813835
  3 C s       :     3.331276  s :     3.331276
      pz      :     1.026126  p :     3.070101
      px      :     0.970920
      py      :     1.073055
      dz2     :     0.009764  d :     0.042483
      dxz     :     0.008210
      dyz     :     0.006867
      dx2y2   :     0.009257
      dxy     :     0.008386
  4 H s       :     0.797262  s :     0.797262
  5 H s       :     0.779524  s :     0.779524
  6 C s       :     3.331641  s :     3.331641
      pz      :     1.007487  p :     3.061667
      px      :     0.929543
      py      :     1.124637
      dz2     :     0.009653  d :     0.041902
      dxz     :     0.007128
      dyz     :     0.008082
      dx2y2   :     0.009529
      dxy     :     0.007511
  7 H s       :     0.788420  s :     0.788420
  8 H s       :     0.752507  s :     0.752507
  9 C s       :     3.254063  s :     3.254063
      pz      :     1.042198  p :     2.808285
      px      :     0.701285
      py      :     1.064802
      dz2     :     0.013294  d :     0.067109
      dxz     :     0.012596
      dyz     :     0.008194
      dx2y2   :     0.017539
      dxy     :     0.015486
 10 H s       :     0.826172  s :     0.826172
 11 H s       :     0.832389  s :     0.832389
 12 O s       :     3.827521  s :     3.827521
      pz      :     1.589675  p :     4.775407
      px      :     1.850709
      py      :     1.335023
      dz2     :     0.007471  d :     0.028443
      dxz     :     0.004371
      dyz     :     0.007542
      dx2y2   :     0.004243
      dxy     :     0.004816
 13 H s       :     0.584105  s :     0.584105
 14 O s       :     3.826526  s :     3.826526
      pz      :     1.589798  p :     4.774350
      px      :     1.351634
      py      :     1.832919
      dz2     :     0.007320  d :     0.028704
      dxz     :     0.005608
      dyz     :     0.006303
      dx2y2   :     0.006037
      dxy     :     0.003436
 15 H s       :     0.587339  s :     0.587339


                     *******************************
                     * LOEWDIN POPULATION ANALYSIS *
                     *******************************

----------------------
LOEWDIN ATOMIC CHARGES
----------------------
   0 C :   -0.086224
   1 H :    0.096958
   2 H :    0.099157
   3 C :   -0.252557
   4 H :    0.122920
   5 H :    0.129017
   6 C :   -0.251379
   7 H :    0.126203
   8 H :    0.141330
   9 C :   -0.087266
  10 H :    0.095877
  11 H :    0.092622
  12 O :   -0.423195
  13 H :    0.309584
  14 O :   -0.421197
  15 H :    0.308150

-------------------------------
LOEWDIN REDUCED ORBITAL CHARGES
-------------------------------
  0 C s       :     2.916922  s :     2.916922
      pz      :     1.098116  p :     3.028601
      px      :     1.081164
      py      :     0.849322
      dz2     :     0.027387  d :     0.140701
      dxz     :     0.009792
      dyz     :     0.033195
      dx2y2   :     0.042987
      dxy     :     0.027340
  1 H s       :     0.903042  s :     0.903042
  2 H s       :     0.900843  s :     0.900843
  3 C s       :     2.919001  s :     2.919001
      pz      :     1.087947  p :     3.247377
      px      :     1.067718
      py      :     1.091712
      dz2     :     0.019783  d :     0.086179
      dxz     :     0.017307
      dyz     :     0.013536
      dx2y2   :     0.019362
      dxy     :     0.016191
  4 H s       :     0.877080  s :     0.877080
  5 H s       :     0.870983  s :     0.870983
  6 C s       :     2.918934  s :     2.918934
      pz      :     1.078455  p :     3.246724
      px      :     1.051302
      py      :     1.116967
      dz2     :     0.019935  d :     0.085722
      dxz     :     0.015409
      dyz     :     0.015849
      dx2y2   :     0.020079
      dxy     :     0.014450
  7 H s       :     0.873797  s :     0.873797
  8 H s       :     0.858670  s :     0.858670
  9 C s       :     2.916734  s :     2.916734
      pz      :     1.100522  p :     3.029854
      px      :     0.830834
      py      :     1.098497
      dz2     :     0.026998  d :     0.140679
      dxz     :     0.027582
      dyz     :     0.016218
      dx2y2   :     0.037438
      dxy     :     0.032443
 10 H s       :     0.904123  s :     0.904123
 11 H s       :     0.907378  s :     0.907378
 12 O s       :     3.540919  s :     3.540919
      pz      :     1.593565  p :     4.832967
      px      :     1.858404
      py      :     1.380999
      dz2     :     0.011056  d :     0.049309
      dxz     :     0.004989
      dyz     :     0.014544
      dx2y2   :     0.009097
      dxy     :     0.009623
 13 H s       :     0.690416  s :     0.690416
 14 O s       :     3.540386  s :     3.540386
      pz      :     1.594453  p :     4.831351
      px      :     1.398792
      py      :     1.838106
      dz2     :     0.010924  d :     0.049460
      dxz     :     0.011682
      dyz     :     0.007850
      dx2y2   :     0.011314
      dxy     :     0.007691
 15 H s       :     0.691850  s :     0.691850


                      *****************************
                      * MAYER POPULATION ANALYSIS *
                      *****************************

  NA   - Mulliken gross atomic population
  ZA   - Total nuclear charge
  QA   - Mulliken gross atomic charge
  VA   - Mayer's total valence
  BVA  - Mayer's bonded valence
  FA   - Mayer's free valence

  ATOM       NA         ZA         QA         VA         BVA        FA
  0 C      6.1449     6.0000    -0.1449     3.7763     3.7763     0.0000
  1 H      0.8241     1.0000     0.1759     0.9088     0.9088    -0.0000
  2 H      0.8138     1.0000     0.1862     0.9067     0.9067    -0.0000
  3 C      6.4439     6.0000    -0.4439     3.7227     3.7227    -0.0000
  4 H      0.7973     1.0000     0.2027     0.9120     0.9120     0.0000
  5 H      0.7795     1.0000     0.2205     0.9086     0.9086     0.0000
  6 C      6.4352     6.0000    -0.4352     3.7162     3.7162    -0.0000
  7 H      0.7884     1.0000     0.2116     0.9126     0.9126     0.0000
  8 H      0.7525     1.0000     0.2475     0.9042     0.9042     0.0000
  9 C      6.1295     6.0000    -0.1295     3.7880     3.7880     0.0000
 10 H      0.8262     1.0000     0.1738     0.9080     0.9080     0.0000
 11 H      0.8324     1.0000     0.1676     0.9089     0.9089     0.0000
 12 O      8.6314     8.0000    -0.6314     1.8316     1.8316     0.0000
 13 H      0.5841     1.0000     0.4159     0.8032     0.8032     0.0000
 14 O      8.6296     8.0000    -0.6296     1.8442     1.8442    -0.0000
 15 H      0.5873     1.0000     0.4127     0.8051     0.8051    -0.0000

  Mayer bond orders larger than 0.100000
B(  0-C ,  1-H ) :   0.9060 B(  0-C ,  2-H ) :   0.9093 B(  0-C ,  3-C ) :   0.9892 
B(  0-C , 12-O ) :   1.0063 B(  3-C ,  4-H ) :   0.9189 B(  3-C ,  5-H ) :   0.9098 
B(  3-C ,  6-C ) :   0.9633 B(  6-C ,  7-H ) :   0.9147 B(  6-C ,  8-H ) :   0.9012 
B(  6-C ,  9-C ) :   0.9940 B(  9-C , 10-H ) :   0.9043 B(  9-C , 11-H ) :   0.9051 
B(  9-C , 14-O ) :   1.0188 B( 12-O , 13-H ) :   0.7938 B( 14-O , 15-H ) :   0.7951 


-------
TIMINGS
-------

Total SCF time: 0 days 0 hours 1 min 11 sec 

Total time                  ....      71.598 sec
Sum of individual times     ....      66.474 sec  ( 92.8%)

Fock matrix formation       ....      53.988 sec  ( 75.4%)
  Split-RI-J                ....       6.073 sec  ( 11.2% of F)
  Chain of spheres X        ....      19.158 sec  ( 35.5% of F)
  XC integration            ....      15.769 sec  ( 29.2% of F)
    Basis function eval.    ....       2.948 sec  ( 18.7% of XC)
    Density eval.           ....       1.485 sec  (  9.4% of XC)
    XC-Functional eval.     ....       1.369 sec  (  8.7% of XC)
    XC-Potential eval.      ....       0.782 sec  (  5.0% of XC)
Diagonalization             ....       0.547 sec  (  0.8%)
Density matrix formation    ....       0.212 sec  (  0.3%)
Population analysis         ....       0.588 sec  (  0.8%)
Initial guess               ....       0.013 sec  (  0.0%)
Orbital Transformation      ....       0.000 sec  (  0.0%)
Orbital Orthonormalization  ....       0.000 sec  (  0.0%)
DIIS solution               ....       4.029 sec  (  5.6%)
SOSCF solution              ....       0.687 sec  (  1.0%)
Grid generation             ....       6.410 sec  (  9.0%)

Maximum memory used throughout the entire SCF-calculation: 52.7 MB


-------------------------------------------------------------------------------
                          DFT DISPERSION CORRECTION                            
                                                                               
                              DFTD3 V3.1  Rev 1                                
                          USING Becke-Johnson damping                          
-------------------------------------------------------------------------------
The PBEh-3c composite method is recognized
Using three-body term ABC
Active option DFTDOPT                   ...         4   

molecular C6(AA) [au] = 1675.418021 


            DFT-D V3
 parameters
 s6 scaling factor         :     1.0000 
 a1 scaling factor         :     0.4860 
 s8 scaling factor         :     0.0000 
 a2 scaling factor         :     4.5000 
 Damping factor alpha9(ATM):    16.0000 
 ad hoc parameters k1-k3   :    16.0000     1.3333    -4.0000 

 Edisp/kcal,au: -3.963529918829  -0.006316286303 
 E6   /kcal   :  -3.970192228 
 E8   /kcal   :  -0.000000000 
 E6(ABC)      :   0.006662309 
 % E8         :   0.000000000 
 % E6(ABC)    :  -0.168090303 

-------------------------   ----------------
Dispersion correction           -0.006316286
-------------------------   ----------------

------------------   -----------------
gCP correction             0.036665664
------------------   -----------------

-------------------------   --------------------
FINAL SINGLE POINT ENERGY      -308.204463369404
-------------------------   --------------------


                            ***************************************
                            *     ORCA property calculations      *
                            ***************************************

                                    ---------------------
                                    Active property flags
                                    ---------------------
   (+) Dipole Moment


------------------------------------------------------------------------------
                       ORCA ELECTRIC PROPERTIES CALCULATION
------------------------------------------------------------------------------

Dipole Moment Calculation                       ... on
Quadrupole Moment Calculation                   ... off
Polarizability Calculation                      ... off
GBWName                                         ... pbeh-3c.gbw
Electron density                                ... pbeh-3c.scfp
The origin for moment calculation is the CENTER OF MASS  = ( 0.353852, -0.269706  0.008081)

-------------
DIPOLE MOMENT
-------------
                                X             Y             Z
Electronic contribution:      2.02878      -1.61101       0.01524
Nuclear contribution   :     -2.65919       2.02461      -0.05958
                        -----------------------------------------
Total Dipole Moment    :     -0.63042       0.41360      -0.04434
                        -----------------------------------------
Magnitude (a.u.)       :      0.75529
Magnitude (Debye)      :      1.91979



--------------------
Rotational spectrum 
--------------------
 
Rotational constants in cm-1:     0.322795     0.045396     0.042396 
Rotational constants in MHz :  9677.144239  1360.936282  1271.008097 

 Dipole components along the rotational axes: 
x,y,z [a.u.] :    -0.283087     0.698021    -0.055601 
x,y,z [Debye]:    -0.719549     1.774227    -0.141327 

 

Timings for individual modules:

Sum of individual times         ...       74.258 sec (=   1.238 min)
GTO integral calculation        ...        2.196 sec (=   0.037 min)   3.0 %
SCF iterations                  ...       72.061 sec (=   1.201 min)  97.0 %
                             ****ORCA TERMINATED NORMALLY****
TOTAL RUN TIME: 0 days 0 hours 1 minutes 17 seconds 396 msec
