
                                 *****************
                                 * O   R   C   A *
                                 *****************

                                            #,                                       
                                            ###                                      
                                            ####                                     
                                            #####                                    
                                            ######                                   
                                           ########,                                 
                                     ,,################,,,,,                         
                               ,,#################################,,                 
                          ,,##########################################,,             
                       ,#########################################, ''#####,          
                    ,#############################################,,   '####,        
                  ,##################################################,,,,####,       
                ,###########''''           ''''###############################       
              ,#####''   ,,,,##########,,,,          '''####'''          '####       
            ,##' ,,,,###########################,,,                        '##       
           ' ,,###''''                  '''############,,,                           
         ,,##''                                '''############,,,,        ,,,,,,###''
      ,#''                                            '''#######################'''  
     '                                                          ''''####''''         
             ,#######,   #######,   ,#######,      ##                                
            ,#'     '#,  ##    ##  ,#'     '#,    #''#        ######   ,####,        
            ##       ##  ##   ,#'  ##            #'  '#       #        #'  '#        
            ##       ##  #######   ##           ,######,      #####,   #    #        
            '#,     ,#'  ##    ##  '#,     ,#' ,#      #,         ##   #,  ,#        
             '#######'   ##     ##  '#######'  #'      '#     #####' # '####'        



                  #######################################################
                  #                        -***-                        #
                  #          Department of theory and spectroscopy      #
                  #    Directorship and core code : Frank Neese         #
                  #        Max Planck Institute fuer Kohlenforschung    #
                  #                Kaiser Wilhelm Platz 1               #
                  #                 D-45470 Muelheim/Ruhr               #
                  #                      Germany                        #
                  #                                                     #
                  #                  All rights reserved                #
                  #                        -***-                        #
                  #######################################################


                         Program Version 5.0.3 -  RELEASE  -


 With contributions from (in alphabetic order):
   Daniel Aravena         : Magnetic Suceptibility
   Michael Atanasov       : Ab Initio Ligand Field Theory (pilot matlab implementation)
   Alexander A. Auer      : GIAO ZORA, VPT2 properties, NMR spectrum
   Ute Becker             : Parallelization
   Giovanni Bistoni       : ED, misc. LED, open-shell LED, HFLD
   Martin Brehm           : Molecular dynamics
   Dmytro Bykov           : SCF Hessian
   Vijay G. Chilkuri      : MRCI spin determinant printing, contributions to CSF-ICE
   Dipayan Datta          : RHF DLPNO-CCSD density
   Achintya Kumar Dutta   : EOM-CC, STEOM-CC
   Dmitry Ganyushin       : Spin-Orbit,Spin-Spin,Magnetic field MRCI
   Miquel Garcia          : C-PCM and meta-GGA Hessian, CC/C-PCM, Gaussian charge scheme
   Yang Guo               : DLPNO-NEVPT2, F12-NEVPT2, CIM, IAO-localization
   Andreas Hansen         : Spin unrestricted coupled pair/coupled cluster methods
   Benjamin Helmich-Paris : MC-RPA, TRAH-SCF, COSX integrals
   Lee Huntington         : MR-EOM, pCC
   Robert Izsak           : Overlap fitted RIJCOSX, COSX-SCS-MP3, EOM
   Marcus Kettner         : VPT2
   Christian Kollmar      : KDIIS, OOCD, Brueckner-CCSD(T), CCSD density, CASPT2, CASPT2-K
   Simone Kossmann        : Meta GGA functionals, TD-DFT gradient, OOMP2, MP2 Hessian
   Martin Krupicka        : Initial AUTO-CI
   Lucas Lang             : DCDCAS
   Marvin Lechner         : AUTO-CI (C++ implementation), FIC-MRCC
   Dagmar Lenk            : GEPOL surface, SMD
   Dimitrios Liakos       : Extrapolation schemes; Compound Job, initial MDCI parallelization
   Dimitrios Manganas     : Further ROCIS development; embedding schemes
   Dimitrios Pantazis     : SARC Basis sets
   Anastasios Papadopoulos: AUTO-CI, single reference methods and gradients
   Taras Petrenko         : DFT Hessian,TD-DFT gradient, ASA, ECA, R-Raman, ABS, FL, XAS/XES, NRVS
   Peter Pinski           : DLPNO-MP2, DLPNO-MP2 Gradient
   Christoph Reimann      : Effective Core Potentials
   Marius Retegan         : Local ZFS, SOC
   Christoph Riplinger    : Optimizer, TS searches, QM/MM, DLPNO-CCSD(T), (RO)-DLPNO pert. Triples
   Tobias Risthaus        : Range-separated hybrids, TD-DFT gradient, RPA, STAB
   Michael Roemelt        : Original ROCIS implementation
   Masaaki Saitow         : Open-shell DLPNO-CCSD energy and density
   Barbara Sandhoefer     : DKH picture change effects
   Avijit Sen             : IP-ROCIS
   Kantharuban Sivalingam : CASSCF convergence, NEVPT2, FIC-MRCI
   Bernardo de Souza      : ESD, SOC TD-DFT
   Georgi Stoychev        : AutoAux, RI-MP2 NMR, DLPNO-MP2 response
   Willem Van den Heuvel  : Paramagnetic NMR
   Boris Wezisla          : Elementary symmetry handling
   Frank Wennmohs         : Technical directorship


 We gratefully acknowledge several colleagues who have allowed us to
 interface, adapt or use parts of their codes:
   Stefan Grimme, W. Hujo, H. Kruse, P. Pracht,  : VdW corrections, initial TS optimization,
                  C. Bannwarth, S. Ehlert          DFT functionals, gCP, sTDA/sTD-DF
   Ed Valeev, F. Pavosevic, A. Kumar             : LibInt (2-el integral package), F12 methods
   Garnet Chan, S. Sharma, J. Yang, R. Olivares  : DMRG
   Ulf Ekstrom                                   : XCFun DFT Library
   Mihaly Kallay                                 : mrcc  (arbitrary order and MRCC methods)
   Jiri Pittner, Ondrej Demel                    : Mk-CCSD
   Frank Weinhold                                : gennbo (NPA and NBO analysis)
   Christopher J. Cramer and Donald G. Truhlar   : smd solvation model
   Lars Goerigk                                  : TD-DFT with DH, B97 family of functionals
   V. Asgeirsson, H. Jonsson                     : NEB implementation
   FAccTs GmbH                                   : IRC, NEB, NEB-TS, DLPNO-Multilevel, CI-OPT
                                                   MM, QMMM, 2- and 3-layer-ONIOM, Crystal-QMMM,
                                                   LR-CPCM, SF, NACMEs, symmetry and pop. for TD-DFT,
                                                   nearIR, NL-DFT gradient (VV10), updates on ESD,
                                                   ML-optimized integration grids
   S Lehtola, MJT Oliveira, MAL Marques          : LibXC Library
   Liviu Ungur et al                             : ANISO software


 Your calculation uses the libint2 library for the computation of 2-el integrals
 For citations please refer to: http://libint.valeyev.net

 Your ORCA version has been built with support for libXC version: 5.1.0
 For citations please refer to: https://tddft.org/programs/libxc/

 This ORCA versions uses:
   CBLAS   interface :  Fast vector & matrix operations
   LAPACKE interface :  Fast linear algebra routines
   SCALAPACK package :  Parallel linear algebra routines
   Shared memory     :  Shared parallel matrices
   BLAS/LAPACK       :  OpenBLAS 0.3.15  USE64BITINT DYNAMIC_ARCH NO_AFFINITY Haswell SINGLE_THREADED
        Core in use  :  Haswell
   Copyright (c) 2011-2014, The OpenBLAS Project




***************************************
The coordinates will be read from file: pme3.xyz
***************************************


Your calculation utilizes the geometrical counterpoise correction gCP
Please cite in your paper:
H.Kruse, S. Grimme J.Chem.Phys., 136, (2012), 154101 
   

Your calculation utilizes the atom-pairwise dispersion correction
with the Becke-Johnson damping scheme (D3BJ)
Cite in your paper:
S.Grimme, S.Ehrlich, L.Goerigk, J Comput Chem, (2011), 32, 1456–1465 
S.Grimme, J.Antony, S.Ehrlich and H.Krieg, J.Chem.Phys., 132, (2010), 154104 
   

Your calculation employs the composite approach PBEh-3c.
Please cite in your paper:
S. Grimme, J. G. Brandenburg, C. Bannwarth, A. Hansen J.Chem.Phys., 143, (2015), 054107 
   

================================================================================

----- Orbital basis set information -----
Your calculation utilizes the basis: def2-mSVP

----- AuxJ basis set information -----
Your calculation utilizes the auxiliary basis: def2/J
   F. Weigend, Phys. Chem. Chem. Phys. 8, 1057 (2006).

================================================================================
                                        WARNINGS
                       Please study these warnings very carefully!
================================================================================


INFO   : the flag for use of the SHARK integral package has been found!

================================================================================
                                       INPUT FILE
================================================================================
NAME = pbeh-3c.inp
|  1> ! PBEh-3c def2/J TightSCF DefGrid3
|  2> 
|  3> %maxcore 60000
|  4> 
|  5> %pal
|  6> nprocs 4
|  7> end
|  8> 
|  9> *xyzfile 0 1 pme3.xyz
| 10> 
| 11>                          ****END OF INPUT****
================================================================================

                       ****************************
                       * Single Point Calculation *
                       ****************************

---------------------------------
CARTESIAN COORDINATES (ANGSTROEM)
---------------------------------
  P      0.000000    0.000000    0.611340
  C      0.000000    1.615521   -0.282401
  C     -1.399082   -0.807761   -0.282401
  C      1.399082   -0.807761   -0.282401
  H      0.000000    1.470671   -1.364852
  H     -0.882011    2.189405    0.001277
  H      0.882011    2.189405    0.001277
  H      1.273639   -0.735336   -1.364852
  H      2.337086   -0.330859    0.001277
  H      1.455075   -1.858547    0.001277
  H     -1.273639   -0.735336   -1.364852
  H     -1.455075   -1.858547    0.001277
  H     -2.337086   -0.330859    0.001277

----------------------------
CARTESIAN COORDINATES (A.U.)
----------------------------
  NO LB      ZA    FRAG     MASS         X           Y           Z
   0 P    15.0000    0    30.974    0.000000    0.000000    1.155265
   1 C     6.0000    0    12.011    0.000000    3.052892   -0.533661
   2 C     6.0000    0    12.011   -2.643882   -1.526447   -0.533661
   3 C     6.0000    0    12.011    2.643882   -1.526447   -0.533661
   4 H     1.0000    0     1.008    0.000000    2.779165   -2.579196
   5 H     1.0000    0     1.008   -1.666759    4.137375    0.002413
   6 H     1.0000    0     1.008    1.666759    4.137375    0.002413
   7 H     1.0000    0     1.008    2.406829   -1.389583   -2.579196
   8 H     1.0000    0     1.008    4.416452   -0.625233    0.002413
   9 H     1.0000    0     1.008    2.749693   -3.512145    0.002413
  10 H     1.0000    0     1.008   -2.406829   -1.389583   -2.579196
  11 H     1.0000    0     1.008   -2.749693   -3.512145    0.002413
  12 H     1.0000    0     1.008   -4.416452   -0.625233    0.002413

--------------------------------
INTERNAL COORDINATES (ANGSTROEM)
--------------------------------
 P      0   0   0     0.000000000000     0.00000000     0.00000000
 C      1   0   0     1.846261290668     0.00000000     0.00000000
 C      1   2   0     1.846261305871    98.53988265     0.00000000
 C      1   2   3     1.846261305871    98.53988265   100.04342170
 H      2   1   3     1.092099571198   111.33046223   309.97828915
 H      2   1   3     1.089843642952   109.55806775    70.79014156
 H      2   1   3     1.089843642952   109.55806775   189.16643674
 H      4   1   2     1.092099481634   111.33049708   309.97830871
 H      4   1   2     1.089844000912   109.55806501    70.79013227
 H      4   1   2     1.089843861078   109.55809987   189.16641383
 H      3   1   2     1.092099481634   111.33049708    50.02169129
 H      3   1   2     1.089843861078   109.55809987   170.83358617
 H      3   1   2     1.089844000912   109.55806501   289.20986773

---------------------------
INTERNAL COORDINATES (A.U.)
---------------------------
 P      0   0   0     0.000000000000     0.00000000     0.00000000
 C      1   0   0     3.488928211022     0.00000000     0.00000000
 C      1   2   0     3.488928239752    98.53988265     0.00000000
 C      1   2   3     3.488928239752    98.53988265   100.04342170
 H      2   1   3     2.063769100537   111.33046223   309.97828915
 H      2   1   3     2.059506013974   109.55806775    70.79014156
 H      2   1   3     2.059506013974   109.55806775   189.16643674
 H      4   1   2     2.063768931285   111.33049708   309.97830871
 H      4   1   2     2.059506690420   109.55806501    70.79013227
 H      4   1   2     2.059506426172   109.55809987   189.16641383
 H      3   1   2     2.063768931285   111.33049708    50.02169129
 H      3   1   2     2.059506426172   109.55809987   170.83358617
 H      3   1   2     2.059506690420   109.55806501   289.20986773

---------------------
BASIS SET INFORMATION
---------------------
There are 3 groups of distinct atoms

 Group   1 Type P   : 10s7p1d contracted to 4s3p1d pattern {5311/511/1}
 Group   2 Type C   : 8s4p1d contracted to 4s2p1d pattern {5111/31/1}
 Group   3 Type H   : 4s contracted to 2s pattern {31}

Atom   0P    basis set group =>   1
Atom   1C    basis set group =>   2
Atom   2C    basis set group =>   2
Atom   3C    basis set group =>   2
Atom   4H    basis set group =>   3
Atom   5H    basis set group =>   3
Atom   6H    basis set group =>   3
Atom   7H    basis set group =>   3
Atom   8H    basis set group =>   3
Atom   9H    basis set group =>   3
Atom  10H    basis set group =>   3
Atom  11H    basis set group =>   3
Atom  12H    basis set group =>   3
---------------------------------
AUXILIARY/J BASIS SET INFORMATION
---------------------------------
There are 3 groups of distinct atoms

 Group   1 Type P   : 14s5p5d2f1g contracted to 8s4p3d1f1g pattern {71111111/2111/311/2/1}
 Group   2 Type C   : 12s5p4d2f1g contracted to 6s4p3d1f1g pattern {711111/2111/211/2/1}
 Group   3 Type H   : 5s2p1d contracted to 3s1p1d pattern {311/2/1}

Atom   0P    basis set group =>   1
Atom   1C    basis set group =>   2
Atom   2C    basis set group =>   2
Atom   3C    basis set group =>   2
Atom   4H    basis set group =>   3
Atom   5H    basis set group =>   3
Atom   6H    basis set group =>   3
Atom   7H    basis set group =>   3
Atom   8H    basis set group =>   3
Atom   9H    basis set group =>   3
Atom  10H    basis set group =>   3
Atom  11H    basis set group =>   3
Atom  12H    basis set group =>   3


           ************************************************************
           *        Program running with 4 parallel MPI-processes     *
           *              working on a common directory               *
           ************************************************************
------------------------------------------------------------------------------
                           ORCA GTO INTEGRAL CALCULATION
                           -- RI-GTO INTEGRALS CHOSEN --
------------------------------------------------------------------------------
------------------------------------------------------------------------------
                   ___                                                        
                  /   \      - P O W E R E D   B Y -                         
                 /     \                                                     
                 |  |  |   _    _      __       _____    __    __             
                 |  |  |  | |  | |    /  \     |  _  \  |  |  /  |          
                  \  \/   | |  | |   /    \    | | | |  |  | /  /          
                 / \  \   | |__| |  /  /\  \   | |_| |  |  |/  /          
                |  |  |   |  __  | /  /__\  \  |    /   |      \           
                |  |  |   | |  | | |   __   |  |    \   |  |\   \          
                \     /   | |  | | |  |  |  |  | |\  \  |  | \   \       
                 \___/    |_|  |_| |__|  |__|  |_| \__\ |__|  \__/        
                                                                              
                      - O R C A' S   B I G   F R I E N D -                    
                                      &                                       
                       - I N T E G R A L  F E E D E R -                       
                                                                              
 v1 FN, 2020, v2 2021                                                         
------------------------------------------------------------------------------


Reading SHARK input file pbeh-3c.SHARKINP.tmp ... ok
----------------------
SHARK INTEGRAL PACKAGE
----------------------

Number of atoms                             ...     13
Number of basis functions                   ...     81
Number of shells                            ...     47
Maximum angular momentum                    ...      2
Integral batch strategy                     ... SHARK/LIBINT Hybrid
RI-J (if used) integral strategy            ... SPLIT-RIJ (Revised 2003 algorithm where possible)
Printlevel                                  ...      1
Contraction scheme used                     ... SEGMENTED contraction
Coulomb Range Separation                    ... NOT USED
Exchange Range Separation                   ... NOT USED
Finite Nucleus Model                        ... NOT USED
Auxiliary Coulomb fitting basis             ... AVAILABLE
   # of basis functions in Aux-J            ...    297
   # of shells in Aux-J                     ...    107
   Maximum angular momentum in Aux-J        ...      4
Auxiliary J/K fitting basis                 ... NOT available
Auxiliary Correlation fitting basis         ... NOT available
Auxiliary 'external' fitting basis          ... NOT available
Integral threshold                          ...     2.500000e-11
Primitive cut-off                           ...     2.500000e-12
Primitive pair pre-selection threshold      ...     2.500000e-12

Calculating pre-screening integrals         ... done (  0.0 sec) Dimension = 47
Organizing shell pair data                  ... done (  0.2 sec)
Shell pair information
Total number of shell pairs                 ...      1128
Shell pairs after pre-screening             ...      1098
Total number of primitive shell pairs       ...      4460
Primitive shell pairs kept                  ...      3236
          la=0 lb=0:    565 shell pairs
          la=1 lb=0:    306 shell pairs
          la=1 lb=1:     45 shell pairs
          la=2 lb=0:    136 shell pairs
          la=2 lb=1:     36 shell pairs
          la=2 lb=2:     10 shell pairs

Calculating one electron integrals          ... done (  0.0 sec)
Calculating RI/J V-Matrix + Cholesky decomp.... done (  0.7 sec)
Calculating Nuclear repulsion               ... done (  0.0 sec) ENN=    177.865747371540 Eh

SHARK setup successfully completed in   1.9 seconds

Maximum memory used throughout the entire GTOINT-calculation: 9.8 MB


           ************************************************************
           *        Program running with 4 parallel MPI-processes     *
           *              working on a common directory               *
           ************************************************************
-------------------------------------------------------------------------------
                                 ORCA SCF
-------------------------------------------------------------------------------

------------
SCF SETTINGS
------------
Hamiltonian:
 Density Functional     Method          .... DFT(GTOs)
 Exchange Functional    Exchange        .... PBE
   PBE kappa parameter   XKappa         ....  1.024500
   PBE mue parameter    XMuePBE         ....  0.123457
 Correlation Functional Correlation     .... PBE
   PBE beta parameter  CBetaPBE         ....  0.030000
 LDA part of GGA corr.  LDAOpt          .... PW91-LDA
 Gradients option       PostSCFGGA      .... off
 Hybrid DFT is turned on
   Fraction HF Exchange ScalHFX         ....  0.420000
   Scaling of DF-GGA-X  ScalDFX         ....  0.580000
   Scaling of DF-GGA-C  ScalDFC         ....  1.000000
   Scaling of DF-LDA-C  ScalLDAC        ....  1.000000
   Perturbative correction              ....  0.000000
   Density functional embedding theory  .... OFF
 RI-approximation to the Coulomb term is turned on
   Number of AuxJ basis functions       .... 297
   RIJ-ON(X) (HFX calculated with O(N)) .... on
   Number of AuxJ basis functions       .... 297
   RIJ-COSX (HFX calculated with COS-X)).... on


General Settings:
 Integral files         IntName         .... pbeh-3c
 Hartree-Fock type      HFTyp           .... RHF
 Total Charge           Charge          ....    0
 Multiplicity           Mult            ....    1
 Number of Electrons    NEL             ....   42
 Basis Dimension        Dim             ....   81
 Nuclear Repulsion      ENuc            ....    177.8657473715 Eh

Convergence Acceleration:
 DIIS                   CNVDIIS         .... on
   Start iteration      DIISMaxIt       ....    12
   Startup error        DIISStart       ....  0.200000
   # of expansion vecs  DIISMaxEq       ....     5
   Bias factor          DIISBfac        ....   1.050
   Max. coefficient     DIISMaxC        ....  10.000
 Trust-Rad. Augm. Hess. CNVTRAH         .... auto
   Auto Start mean grad. ratio tolernc. ....  1.125000
   Auto Start start iteration           ....    20
   Auto Start num. interpolation iter.  ....    10
   Max. Number of Micro iterations      ....    16
   Max. Number of Macro iterations      .... Maxiter - #DIIS iter
   Number of Davidson start vectors     ....     2
   Converg. threshold I  (grad. norm)   ....   1.000e-05
   Converg. threshold II (energy diff.) ....   1.000e-08
   Grad. Scal. Fac. for Micro threshold ....   0.100
   Minimum threshold for Micro iter.    ....   0.010
   NR start threshold (gradient norm)   ....   0.001
   Initial trust radius                 ....   0.400
   Minimum AH scaling param. (alpha)    ....   1.000
   Maximum AH scaling param. (alpha)    .... 1000.000
   Orbital update algorithm             .... Taylor
   White noise on init. David. guess    .... on
   Maximum white noise                  ....   0.010
   Quad. conv. algorithm                .... NR
   COSX micro iterations for RIJONX calc.... off
 SOSCF                  CNVSOSCF        .... on
   Start iteration      SOSCFMaxIt      ....   150
   Startup grad/error   SOSCFStart      ....  0.003300
 Level Shifting         CNVShift        .... on
   Level shift para.    LevelShift      ....    0.2500
   Turn off err/grad.   ShiftErr        ....    0.0010
 Zerner damping         CNVZerner       .... off
 Static damping         CNVDamp         .... on
   Fraction old density DampFac         ....    0.7000
   Max. Damping (<1)    DampMax         ....    0.9800
   Min. Damping (>=0)   DampMin         ....    0.0000
   Turn off err/grad.   DampErr         ....    0.1000
 Fernandez-Rico         CNVRico         .... off

SCF Procedure:
 Maximum # iterations   MaxIter         ....   125
 SCF integral mode      SCFMode         .... Direct
   Integral package                     .... SHARK and LIBINT hybrid scheme
 Reset frequency        DirectResetFreq ....    20
 Integral Threshold     Thresh          ....  2.500e-11 Eh
 Primitive CutOff       TCut            ....  2.500e-12 Eh

Convergence Tolerance:
 Convergence Check Mode ConvCheckMode   .... Total+1el-Energy
 Convergence forced     ConvForced      .... 0
 Energy Change          TolE            ....  1.000e-08 Eh
 1-El. energy change                    ....  1.000e-05 Eh
 Orbital Gradient       TolG            ....  1.000e-05
 Orbital Rotation angle TolX            ....  1.000e-05
 DIIS Error             TolErr          ....  5.000e-07


Diagonalization of the overlap matrix:
Smallest eigenvalue                        ... 4.726e-03
Time for diagonalization                   ...    0.002 sec
Threshold for overlap eigenvalues          ... 1.000e-08
Number of eigenvalues below threshold      ... 0
Time for construction of square roots      ...    0.259 sec
Total time needed                          ...    0.262 sec

--------------------------------
INITIAL GUESS: MINIMAL BASIS EHT
--------------------------------
The minimal basis has 33 functions
EHT matrix was diagonalized
Basis set overlap was calculated now projecting the orbitals
Using GuessMode=FMatrix for the initial guess
C*T matrix was formed
Effective Fockian was calculated
Effective Fockian was diagonalized
Initial density was built
                      ------------------
                      INITIAL GUESS DONE
                      ------------------
-------------------
DFT GRID GENERATION
-------------------

General Integration Accuracy     IntAcc      ... 4.959
Radial Grid Type                 RadialGrid  ... OptM3 with GC (2021)
Angular Grid (max. ang.)         AngularGrid ... 6 (Lebedev-590)
Angular grid pruning method      GridPruning ... 4 (adaptive)
Weight generation scheme         WeightScheme... Becke
Basis function cutoff            BFCut       ... 1.0000e-11
Integration weight cutoff        WCut        ... 1.0000e-14
Angular grids for H and He will be reduced by one unit
Partially contracted basis set               ... off
Rotationally invariant grid construction     ... off

Total number of grid points                  ...   138190
Total number of batches                      ...     2164
Average number of points per batch           ...       63
Average number of grid points per atom       ...    10630
Time for grid setup =    2.610 sec

--------------------
COSX GRID GENERATION
--------------------

GRIDX 1
-------
General Integration Accuracy     IntAcc      ... 4.020
Radial Grid Type                 RadialGrid  ... OptM3 with GC (2021)
Angular Grid (max. ang.)         AngularGrid ... 2 (Lebedev-110)
Angular grid pruning method      GridPruning ... 4 (adaptive)
Weight generation scheme         WeightScheme... Becke
Basis function cutoff            BFCut       ... 1.0000e-11
Integration weight cutoff        WCut        ... 1.0000e-14
Angular grids for H and He will be reduced by one unit
Partially contracted basis set               ... on
Rotationally invariant grid construction     ... off

Total number of grid points                  ...    14373
Total number of batches                      ...      230
Average number of points per batch           ...       62
Average number of grid points per atom       ...     1106
UseSFitting                                  ... on

GRIDX 2
-------
General Integration Accuracy     IntAcc      ... 4.338
Radial Grid Type                 RadialGrid  ... OptM3 with GC (2021)
Angular Grid (max. ang.)         AngularGrid ... 3 (Lebedev-194)
Angular grid pruning method      GridPruning ... 4 (adaptive)
Weight generation scheme         WeightScheme... Becke
Basis function cutoff            BFCut       ... 1.0000e-11
Integration weight cutoff        WCut        ... 1.0000e-14
Angular grids for H and He will be reduced by one unit
Partially contracted basis set               ... on
Rotationally invariant grid construction     ... off

Total number of grid points                  ...    31949
Total number of batches                      ...      505
Average number of points per batch           ...       63
Average number of grid points per atom       ...     2458
UseSFitting                                  ... on

GRIDX 3
-------
General Integration Accuracy     IntAcc      ... 4.871
Radial Grid Type                 RadialGrid  ... OptM3 with GC (2021)
Angular Grid (max. ang.)         AngularGrid ... 4 (Lebedev-302)
Angular grid pruning method      GridPruning ... 4 (adaptive)
Weight generation scheme         WeightScheme... Becke
Basis function cutoff            BFCut       ... 1.0000e-11
Integration weight cutoff        WCut        ... 1.0000e-14
Angular grids for H and He will be reduced by one unit
Partially contracted basis set               ... on
Rotationally invariant grid construction     ... off

Total number of grid points                  ...    63837
Total number of batches                      ...     1002
Average number of points per batch           ...       63
Average number of grid points per atom       ...     4911
UseSFitting                                  ... on

Time for X-Grid setup             =    4.332 sec

--------------
SCF ITERATIONS
--------------
ITER       Energy         Delta-E        Max-DP      RMS-DP      [F,P]     Damp
               ***  Starting incremental Fock matrix formation  ***
  0   -459.9449734322   0.000000000000 0.16962359  0.00565587  0.3763871 0.7000
  1   -460.0927969684  -0.147823536191 0.12235392  0.00415630  0.2656333 0.7000
                               ***Turning on DIIS***
  2   -460.1964367795  -0.103639811036 0.08576152  0.00300725  0.1868711 0.7000
  3   -460.2692740457  -0.072837266276 0.06001795  0.00221038  0.1313728 0.7000
  4   -460.3207000308  -0.051425985023 0.14673953  0.00560831  0.0919058 0.0000
  5   -460.4429988043  -0.122298773557 0.01929220  0.00050375  0.0041742 0.0000
                      *** Initiating the SOSCF procedure ***
                           *** Shutting down DIIS ***
                      *** Re-Reading the Fockian *** 
                      *** Removing any level shift *** 
ITER      Energy       Delta-E        Grad      Rot      Max-DP    RMS-DP
  6   -460.44310878  -0.0001099769  0.001341  0.001341  0.008325  0.000240
               *** Restarting incremental Fock matrix formation ***
  7   -460.44312614  -0.0000173607  0.000732  0.001519  0.007955  0.000195
  8   -460.44313130  -0.0000051586  0.000115  0.000474  0.002060  0.000061
  9   -460.44313155  -0.0000002487  0.000073  0.000115  0.000732  0.000020
 10   -460.44313173  -0.0000001810  0.000005  0.000007  0.000033  0.000001
 11   -460.44313173   0.0000000022  0.000004  0.000003  0.000018  0.000000
                  ***Gradient check signals convergence***
              ***Rediagonalizing the Fockian in SOSCF/NRSCF***

               *****************************************************
               *                     SUCCESS                       *
               *           SCF CONVERGED AFTER  12 CYCLES          *
               *****************************************************

Old exchange energy                            =    -17.380409450 Eh
New exchange energy                            =    -17.380410605 Eh
Exchange energy change after final integration =     -0.000001154 Eh
Total energy after final integration           =   -460.443132881 Eh
Final COS-X integration done in                =     1.369 sec

----------------
TOTAL SCF ENERGY
----------------

Total Energy       :         -460.44313288 Eh          -12529.29462 eV

Components:
Nuclear Repulsion  :          177.86574737 Eh            4839.97305 eV
Electronic Energy  :         -638.30888025 Eh          -17369.26767 eV
One Electron Energy:         -984.56153558 Eh          -26791.28143 eV
Two Electron Energy:          346.25265533 Eh            9422.01376 eV
Max COSX asymmetry :            0.00000406 Eh               0.00011 eV

Virial components:
Potential Energy   :         -919.30437643 Eh          -25015.54385 eV
Kinetic Energy     :          458.86124355 Eh           12486.24923 eV
Virial Ratio       :            2.00344742


DFT components:
N(Alpha)           :       20.999996657232 electrons
N(Beta)            :       20.999996657232 electrons
N(Total)           :       41.999993314464 electrons
E(X)               :      -23.103549278543 Eh       
E(C)               :       -1.884318342165 Eh       
E(XC)              :      -24.987867620708 Eh       
DFET-embed. en.    :        0.000000000000 Eh       

---------------
SCF CONVERGENCE
---------------

  Last Energy change         ...    1.2397e-09  Tolerance :   1.0000e-08
  Last MAX-Density change    ...    5.7732e-15  Tolerance :   1.0000e-07
  Last RMS-Density change    ...    9.8178e-17  Tolerance :   5.0000e-09
  Last Orbital Gradient      ...    1.9280e-07  Tolerance :   1.0000e-05
  Last Orbital Rotation      ...    3.9504e-07  Tolerance :   1.0000e-05

             **** THE GBW FILE WAS UPDATED (pbeh-3c.gbw) ****
             **** DENSITY pbeh-3c.scfp WAS UPDATED ****
             **** ENERGY FILE WAS UPDATED (pbeh-3c.en.tmp) ****
             **** THE GBW FILE WAS UPDATED (pbeh-3c.gbw) ****
             **** DENSITY pbeh-3c.scfp WAS UPDATED ****
----------------
ORBITAL ENERGIES
----------------

  NO   OCC          E(Eh)            E(eV) 
   0   2.0000     -77.723451     -2114.9626 
   1   2.0000     -10.429813      -283.8096 
   2   2.0000     -10.429813      -283.8096 
   3   2.0000     -10.429770      -283.8085 
   4   2.0000      -6.796187      -184.9336 
   5   2.0000      -4.887042      -132.9832 
   6   2.0000      -4.887041      -132.9831 
   7   2.0000      -4.884759      -132.9211 
   8   2.0000      -0.847606       -23.0645 
   9   2.0000      -0.769059       -20.9271 
  10   2.0000      -0.769058       -20.9271 
  11   2.0000      -0.590221       -16.0607 
  12   2.0000      -0.496832       -13.5195 
  13   2.0000      -0.481659       -13.1066 
  14   2.0000      -0.481658       -13.1066 
  15   2.0000      -0.451687       -12.2910 
  16   2.0000      -0.451686       -12.2910 
  17   2.0000      -0.438378       -11.9289 
  18   2.0000      -0.370678       -10.0867 
  19   2.0000      -0.370678       -10.0867 
  20   2.0000      -0.262796        -7.1510 
  21   0.0000       0.103446         2.8149 
  22   0.0000       0.103448         2.8150 
  23   0.0000       0.129576         3.5260 
  24   0.0000       0.165500         4.5035 
  25   0.0000       0.176813         4.8113 
  26   0.0000       0.176816         4.8114 
  27   0.0000       0.219231         5.9656 
  28   0.0000       0.224082         6.0976 
  29   0.0000       0.224083         6.0976 
  30   0.0000       0.239882         6.5275 
  31   0.0000       0.239884         6.5276 
  32   0.0000       0.259878         7.0716 
  33   0.0000       0.422466        11.4959 
  34   0.0000       0.465263        12.6605 
  35   0.0000       0.465264        12.6605 
  36   0.0000       0.476990        12.9795 
  37   0.0000       0.482743        13.1361 
  38   0.0000       0.482746        13.1362 
  39   0.0000       0.588530        16.0147 
  40   0.0000       0.656672        17.8690 
  41   0.0000       0.656676        17.8691 
  42   0.0000       0.695034        18.9128 
  43   0.0000       0.695047        18.9132 
  44   0.0000       0.725445        19.7404 
  45   0.0000       0.725448        19.7404 
  46   0.0000       0.727012        19.7830 
  47   0.0000       0.797133        21.6911 
  48   0.0000       0.815948        22.2031 
  49   0.0000       0.984775        26.7971 
  50   0.0000       0.984777        26.7971 
  51   0.0000       1.010455        27.4959 
  52   0.0000       1.013768        27.5860 
  53   0.0000       1.036975        28.2175 
  54   0.0000       1.036981        28.2177 
  55   0.0000       1.045117        28.4391 
  56   0.0000       1.090638        29.6778 
  57   0.0000       1.090638        29.6778 
  58   0.0000       1.143002        31.1027 
  59   0.0000       1.143004        31.1027 
  60   0.0000       1.292888        35.1813 
  61   0.0000       1.352563        36.8051 
  62   0.0000       1.352568        36.8052 
  63   0.0000       1.726881        46.9908 
  64   0.0000       1.769588        48.1529 
  65   0.0000       1.769589        48.1530 
  66   0.0000       1.858558        50.5739 
  67   0.0000       1.858559        50.5740 
  68   0.0000       1.938657        52.7535 
  69   0.0000       2.131247        57.9942 
  70   0.0000       2.250482        61.2387 
  71   0.0000       2.250482        61.2387 
  72   0.0000       2.314706        62.9863 
  73   0.0000       2.318819        63.0983 
  74   0.0000       2.318821        63.0983 
  75   0.0000       2.322967        63.2112 
  76   0.0000       2.364076        64.3298 
  77   0.0000       2.364078        64.3298 
  78   0.0000      13.700299       372.8041 
  79   0.0000      13.775728       374.8566 
  80   0.0000      13.775731       374.8567 

                    ********************************
                    * MULLIKEN POPULATION ANALYSIS *
                    ********************************

-----------------------
MULLIKEN ATOMIC CHARGES
-----------------------
   0 P :    0.416097
   1 C :   -0.846006
   2 C :   -0.846057
   3 C :   -0.846057
   4 H :    0.225690
   5 H :    0.240823
   6 H :    0.240823
   7 H :    0.225695
   8 H :    0.240823
   9 H :    0.240826
  10 H :    0.225695
  11 H :    0.240826
  12 H :    0.240822
Sum of atomic charges:    0.0000000

--------------------------------
MULLIKEN REDUCED ORBITAL CHARGES
--------------------------------
  0 P s       :     5.652057  s :     5.652057
      pz      :     3.309551  p :     8.759193
      px      :     2.724816
      py      :     2.724826
      dz2     :     0.014492  d :     0.172652
      dxz     :     0.040248
      dyz     :     0.040248
      dx2y2   :     0.038832
      dxy     :     0.038832
  1 C s       :     3.432714  s :     3.432714
      pz      :     1.123803  p :     3.382959
      px      :     1.157497
      py      :     1.101659
      dz2     :     0.011434  d :     0.030333
      dxz     :     0.002401
      dyz     :     0.003927
      dx2y2   :     0.003378
      dxy     :     0.009192
  2 C s       :     3.432718  s :     3.432718
      pz      :     1.123824  p :     3.383006
      px      :     1.115636
      py      :     1.143545
      dz2     :     0.011435  d :     0.030333
      dxz     :     0.003546
      dyz     :     0.002783
      dx2y2   :     0.007739
      dxy     :     0.004831
  3 C s       :     3.432718  s :     3.432718
      pz      :     1.123824  p :     3.383006
      px      :     1.115636
      py      :     1.143545
      dz2     :     0.011435  d :     0.030333
      dxz     :     0.003546
      dyz     :     0.002783
      dx2y2   :     0.007739
      dxy     :     0.004831
  4 H s       :     0.774310  s :     0.774310
  5 H s       :     0.759177  s :     0.759177
  6 H s       :     0.759177  s :     0.759177
  7 H s       :     0.774305  s :     0.774305
  8 H s       :     0.759177  s :     0.759177
  9 H s       :     0.759174  s :     0.759174
 10 H s       :     0.774305  s :     0.774305
 11 H s       :     0.759174  s :     0.759174
 12 H s       :     0.759178  s :     0.759178


                     *******************************
                     * LOEWDIN POPULATION ANALYSIS *
                     *******************************

----------------------
LOEWDIN ATOMIC CHARGES
----------------------
   0 P :    0.367836
   1 C :   -0.525335
   2 C :   -0.525350
   3 C :   -0.525350
   4 H :    0.125777
   5 H :    0.138478
   6 H :    0.138478
   7 H :    0.125778
   8 H :    0.138478
   9 H :    0.138477
  10 H :    0.125778
  11 H :    0.138477
  12 H :    0.138478

-------------------------------
LOEWDIN REDUCED ORBITAL CHARGES
-------------------------------
  0 P s       :     5.350913  s :     5.350913
      pz      :     3.429021  p :     9.038212
      px      :     2.804594
      py      :     2.804597
      dz2     :     0.020782  d :     0.243039
      dxz     :     0.054346
      dyz     :     0.054346
      dx2y2   :     0.056782
      dxy     :     0.056783
  1 C s       :     3.011322  s :     3.011322
      pz      :     1.151261  p :     3.460791
      px      :     1.153364
      py      :     1.156166
      dz2     :     0.019284  d :     0.053222
      dxz     :     0.003536
      dyz     :     0.008555
      dx2y2   :     0.006549
      dxy     :     0.015298
  2 C s       :     3.011324  s :     3.011324
      pz      :     1.151267  p :     3.460804
      px      :     1.155472
      py      :     1.154066
      dz2     :     0.019284  d :     0.053222
      dxz     :     0.007300
      dyz     :     0.004791
      dx2y2   :     0.013111
      dxy     :     0.008736
  3 C s       :     3.011324  s :     3.011324
      pz      :     1.151267  p :     3.460804
      px      :     1.155472
      py      :     1.154066
      dz2     :     0.019284  d :     0.053222
      dxz     :     0.007300
      dyz     :     0.004791
      dx2y2   :     0.013111
      dxy     :     0.008736
  4 H s       :     0.874223  s :     0.874223
  5 H s       :     0.861522  s :     0.861522
  6 H s       :     0.861522  s :     0.861522
  7 H s       :     0.874222  s :     0.874222
  8 H s       :     0.861522  s :     0.861522
  9 H s       :     0.861523  s :     0.861523
 10 H s       :     0.874222  s :     0.874222
 11 H s       :     0.861523  s :     0.861523
 12 H s       :     0.861522  s :     0.861522


                      *****************************
                      * MAYER POPULATION ANALYSIS *
                      *****************************

  NA   - Mulliken gross atomic population
  ZA   - Total nuclear charge
  QA   - Mulliken gross atomic charge
  VA   - Mayer's total valence
  BVA  - Mayer's bonded valence
  FA   - Mayer's free valence

  ATOM       NA         ZA         QA         VA         BVA        FA
  0 P     14.5839    15.0000     0.4161     2.9285     2.9285     0.0000
  1 C      6.8460     6.0000    -0.8460     3.6974     3.6974    -0.0000
  2 C      6.8461     6.0000    -0.8461     3.6974     3.6974     0.0000
  3 C      6.8461     6.0000    -0.8461     3.6974     3.6974     0.0000
  4 H      0.7743     1.0000     0.2257     0.9081     0.9081     0.0000
  5 H      0.7592     1.0000     0.2408     0.9050     0.9050    -0.0000
  6 H      0.7592     1.0000     0.2408     0.9050     0.9050    -0.0000
  7 H      0.7743     1.0000     0.2257     0.9081     0.9081     0.0000
  8 H      0.7592     1.0000     0.2408     0.9050     0.9050     0.0000
  9 H      0.7592     1.0000     0.2408     0.9050     0.9050     0.0000
 10 H      0.7743     1.0000     0.2257     0.9081     0.9081     0.0000
 11 H      0.7592     1.0000     0.2408     0.9050     0.9050    -0.0000
 12 H      0.7592     1.0000     0.2408     0.9050     0.9050    -0.0000

  Mayer bond orders larger than 0.100000
B(  0-P ,  1-C ) :   0.9711 B(  0-P ,  2-C ) :   0.9711 B(  0-P ,  3-C ) :   0.9711 
B(  1-C ,  4-H ) :   0.9046 B(  1-C ,  5-H ) :   0.9148 B(  1-C ,  6-H ) :   0.9148 
B(  2-C , 10-H ) :   0.9046 B(  2-C , 11-H ) :   0.9148 B(  2-C , 12-H ) :   0.9148 
B(  3-C ,  7-H ) :   0.9046 B(  3-C ,  8-H ) :   0.9148 B(  3-C ,  9-H ) :   0.9148 


-------
TIMINGS
-------

Total SCF time: 0 days 0 hours 0 min 43 sec 

Total time                  ....      43.662 sec
Sum of individual times     ....      39.771 sec  ( 91.1%)

Fock matrix formation       ....      31.128 sec  ( 71.3%)
  Split-RI-J                ....       3.591 sec  ( 11.5% of F)
  Chain of spheres X        ....       9.595 sec  ( 30.8% of F)
  XC integration            ....      11.125 sec  ( 35.7% of F)
    Basis function eval.    ....       1.726 sec  ( 15.5% of XC)
    Density eval.           ....       1.045 sec  (  9.4% of XC)
    XC-Functional eval.     ....       0.952 sec  (  8.6% of XC)
    XC-Potential eval.      ....       0.485 sec  (  4.4% of XC)
Diagonalization             ....       0.630 sec  (  1.4%)
Density matrix formation    ....       0.032 sec  (  0.1%)
Population analysis         ....       0.010 sec  (  0.0%)
Initial guess               ....       0.035 sec  (  0.1%)
Orbital Transformation      ....       0.000 sec  (  0.0%)
Orbital Orthonormalization  ....       0.000 sec  (  0.0%)
DIIS solution               ....       0.873 sec  (  2.0%)
SOSCF solution              ....       0.120 sec  (  0.3%)
Grid generation             ....       6.942 sec  ( 15.9%)

Maximum memory used throughout the entire SCF-calculation: 49.7 MB


-------------------------------------------------------------------------------
                          DFT DISPERSION CORRECTION                            
                                                                               
                              DFTD3 V3.1  Rev 1                                
                          USING Becke-Johnson damping                          
-------------------------------------------------------------------------------
The PBEh-3c composite method is recognized
Using three-body term ABC
Active option DFTDOPT                   ...         4   

molecular C6(AA) [au] = 1662.643532 


            DFT-D V3
 parameters
 s6 scaling factor         :     1.0000 
 a1 scaling factor         :     0.4860 
 s8 scaling factor         :     0.0000 
 a2 scaling factor         :     4.5000 
 Damping factor alpha9(ATM):    16.0000 
 ad hoc parameters k1-k3   :    16.0000     1.3333    -4.0000 

 Edisp/kcal,au: -3.494220809346  -0.005568394711 
 E6   /kcal   :  -3.506445684 
 E8   /kcal   :  -0.000000000 
 E6(ABC)      :   0.012224875 
 % E8         :   0.000000000 
 % E6(ABC)    :  -0.349859819 

-------------------------   ----------------
Dispersion correction           -0.005568395
-------------------------   ----------------

------------------   -----------------
gCP correction             0.011828471
------------------   -----------------

-------------------------   --------------------
FINAL SINGLE POINT ENERGY      -460.436872804635
-------------------------   --------------------


                            ***************************************
                            *     ORCA property calculations      *
                            ***************************************

                                    ---------------------
                                    Active property flags
                                    ---------------------
   (+) Dipole Moment


------------------------------------------------------------------------------
                       ORCA ELECTRIC PROPERTIES CALCULATION
------------------------------------------------------------------------------

Dipole Moment Calculation                       ... on
Quadrupole Moment Calculation                   ... off
Polarizability Calculation                      ... off
GBWName                                         ... pbeh-3c.gbw
Electron density                                ... pbeh-3c.scfp
The origin for moment calculation is the CENTER OF MASS  = ( 0.000000, -0.000000  0.115260)

-------------
DIPOLE MOMENT
-------------
                                X             Y             Z
Electronic contribution:     -0.00000       0.00003       4.32836
Nuclear contribution   :     -0.00000      -0.00000      -4.84096
                        -----------------------------------------
Total Dipole Moment    :     -0.00000       0.00003      -0.51260
                        -----------------------------------------
Magnitude (a.u.)       :      0.51260
Magnitude (Debye)      :      1.30293



--------------------
Rotational spectrum 
--------------------
 
Rotational constants in cm-1:     0.193901     0.193901     0.125542 
Rotational constants in MHz :  5812.995586  5812.993248  3763.641271 

 Dipole components along the rotational axes: 
x,y,z [a.u.] :     0.000027    -0.000000    -0.512601 
x,y,z [Debye]:     0.000068    -0.000000    -1.302929 

 

Timings for individual modules:

Sum of individual times         ...       47.791 sec (=   0.797 min)
GTO integral calculation        ...        3.240 sec (=   0.054 min)   6.8 %
SCF iterations                  ...       44.551 sec (=   0.743 min)  93.2 %
                             ****ORCA TERMINATED NORMALLY****
TOTAL RUN TIME: 0 days 0 hours 0 minutes 48 seconds 994 msec
