
                                 *****************
                                 * O   R   C   A *
                                 *****************

                                            #,                                       
                                            ###                                      
                                            ####                                     
                                            #####                                    
                                            ######                                   
                                           ########,                                 
                                     ,,################,,,,,                         
                               ,,#################################,,                 
                          ,,##########################################,,             
                       ,#########################################, ''#####,          
                    ,#############################################,,   '####,        
                  ,##################################################,,,,####,       
                ,###########''''           ''''###############################       
              ,#####''   ,,,,##########,,,,          '''####'''          '####       
            ,##' ,,,,###########################,,,                        '##       
           ' ,,###''''                  '''############,,,                           
         ,,##''                                '''############,,,,        ,,,,,,###''
      ,#''                                            '''#######################'''  
     '                                                          ''''####''''         
             ,#######,   #######,   ,#######,      ##                                
            ,#'     '#,  ##    ##  ,#'     '#,    #''#        ######   ,####,        
            ##       ##  ##   ,#'  ##            #'  '#       #        #'  '#        
            ##       ##  #######   ##           ,######,      #####,   #    #        
            '#,     ,#'  ##    ##  '#,     ,#' ,#      #,         ##   #,  ,#        
             '#######'   ##     ##  '#######'  #'      '#     #####' # '####'        



                  #######################################################
                  #                        -***-                        #
                  #          Department of theory and spectroscopy      #
                  #    Directorship and core code : Frank Neese         #
                  #        Max Planck Institute fuer Kohlenforschung    #
                  #                Kaiser Wilhelm Platz 1               #
                  #                 D-45470 Muelheim/Ruhr               #
                  #                      Germany                        #
                  #                                                     #
                  #                  All rights reserved                #
                  #                        -***-                        #
                  #######################################################


                         Program Version 5.0.3 -  RELEASE  -


 With contributions from (in alphabetic order):
   Daniel Aravena         : Magnetic Suceptibility
   Michael Atanasov       : Ab Initio Ligand Field Theory (pilot matlab implementation)
   Alexander A. Auer      : GIAO ZORA, VPT2 properties, NMR spectrum
   Ute Becker             : Parallelization
   Giovanni Bistoni       : ED, misc. LED, open-shell LED, HFLD
   Martin Brehm           : Molecular dynamics
   Dmytro Bykov           : SCF Hessian
   Vijay G. Chilkuri      : MRCI spin determinant printing, contributions to CSF-ICE
   Dipayan Datta          : RHF DLPNO-CCSD density
   Achintya Kumar Dutta   : EOM-CC, STEOM-CC
   Dmitry Ganyushin       : Spin-Orbit,Spin-Spin,Magnetic field MRCI
   Miquel Garcia          : C-PCM and meta-GGA Hessian, CC/C-PCM, Gaussian charge scheme
   Yang Guo               : DLPNO-NEVPT2, F12-NEVPT2, CIM, IAO-localization
   Andreas Hansen         : Spin unrestricted coupled pair/coupled cluster methods
   Benjamin Helmich-Paris : MC-RPA, TRAH-SCF, COSX integrals
   Lee Huntington         : MR-EOM, pCC
   Robert Izsak           : Overlap fitted RIJCOSX, COSX-SCS-MP3, EOM
   Marcus Kettner         : VPT2
   Christian Kollmar      : KDIIS, OOCD, Brueckner-CCSD(T), CCSD density, CASPT2, CASPT2-K
   Simone Kossmann        : Meta GGA functionals, TD-DFT gradient, OOMP2, MP2 Hessian
   Martin Krupicka        : Initial AUTO-CI
   Lucas Lang             : DCDCAS
   Marvin Lechner         : AUTO-CI (C++ implementation), FIC-MRCC
   Dagmar Lenk            : GEPOL surface, SMD
   Dimitrios Liakos       : Extrapolation schemes; Compound Job, initial MDCI parallelization
   Dimitrios Manganas     : Further ROCIS development; embedding schemes
   Dimitrios Pantazis     : SARC Basis sets
   Anastasios Papadopoulos: AUTO-CI, single reference methods and gradients
   Taras Petrenko         : DFT Hessian,TD-DFT gradient, ASA, ECA, R-Raman, ABS, FL, XAS/XES, NRVS
   Peter Pinski           : DLPNO-MP2, DLPNO-MP2 Gradient
   Christoph Reimann      : Effective Core Potentials
   Marius Retegan         : Local ZFS, SOC
   Christoph Riplinger    : Optimizer, TS searches, QM/MM, DLPNO-CCSD(T), (RO)-DLPNO pert. Triples
   Tobias Risthaus        : Range-separated hybrids, TD-DFT gradient, RPA, STAB
   Michael Roemelt        : Original ROCIS implementation
   Masaaki Saitow         : Open-shell DLPNO-CCSD energy and density
   Barbara Sandhoefer     : DKH picture change effects
   Avijit Sen             : IP-ROCIS
   Kantharuban Sivalingam : CASSCF convergence, NEVPT2, FIC-MRCI
   Bernardo de Souza      : ESD, SOC TD-DFT
   Georgi Stoychev        : AutoAux, RI-MP2 NMR, DLPNO-MP2 response
   Willem Van den Heuvel  : Paramagnetic NMR
   Boris Wezisla          : Elementary symmetry handling
   Frank Wennmohs         : Technical directorship


 We gratefully acknowledge several colleagues who have allowed us to
 interface, adapt or use parts of their codes:
   Stefan Grimme, W. Hujo, H. Kruse, P. Pracht,  : VdW corrections, initial TS optimization,
                  C. Bannwarth, S. Ehlert          DFT functionals, gCP, sTDA/sTD-DF
   Ed Valeev, F. Pavosevic, A. Kumar             : LibInt (2-el integral package), F12 methods
   Garnet Chan, S. Sharma, J. Yang, R. Olivares  : DMRG
   Ulf Ekstrom                                   : XCFun DFT Library
   Mihaly Kallay                                 : mrcc  (arbitrary order and MRCC methods)
   Jiri Pittner, Ondrej Demel                    : Mk-CCSD
   Frank Weinhold                                : gennbo (NPA and NBO analysis)
   Christopher J. Cramer and Donald G. Truhlar   : smd solvation model
   Lars Goerigk                                  : TD-DFT with DH, B97 family of functionals
   V. Asgeirsson, H. Jonsson                     : NEB implementation
   FAccTs GmbH                                   : IRC, NEB, NEB-TS, DLPNO-Multilevel, CI-OPT
                                                   MM, QMMM, 2- and 3-layer-ONIOM, Crystal-QMMM,
                                                   LR-CPCM, SF, NACMEs, symmetry and pop. for TD-DFT,
                                                   nearIR, NL-DFT gradient (VV10), updates on ESD,
                                                   ML-optimized integration grids
   S Lehtola, MJT Oliveira, MAL Marques          : LibXC Library
   Liviu Ungur et al                             : ANISO software


 Your calculation uses the libint2 library for the computation of 2-el integrals
 For citations please refer to: http://libint.valeyev.net

 Your ORCA version has been built with support for libXC version: 5.1.0
 For citations please refer to: https://tddft.org/programs/libxc/

 This ORCA versions uses:
   CBLAS   interface :  Fast vector & matrix operations
   LAPACKE interface :  Fast linear algebra routines
   SCALAPACK package :  Parallel linear algebra routines
   Shared memory     :  Shared parallel matrices
   BLAS/LAPACK       :  OpenBLAS 0.3.15  USE64BITINT DYNAMIC_ARCH NO_AFFINITY Haswell SINGLE_THREADED
        Core in use  :  Haswell
   Copyright (c) 2011-2014, The OpenBLAS Project




***************************************
The coordinates will be read from file: BN_Corannulene.xyz
***************************************


Your calculation utilizes the geometrical counterpoise correction gCP
Please cite in your paper:
H.Kruse, S. Grimme J.Chem.Phys., 136, (2012), 154101 
   

Your calculation utilizes the atom-pairwise dispersion correction
with the Becke-Johnson damping scheme (D3BJ)
Cite in your paper:
S.Grimme, S.Ehrlich, L.Goerigk, J Comput Chem, (2011), 32, 1456–1465 
S.Grimme, J.Antony, S.Ehrlich and H.Krieg, J.Chem.Phys., 132, (2010), 154104 
   

Your calculation employs the composite approach PBEh-3c.
Please cite in your paper:
S. Grimme, J. G. Brandenburg, C. Bannwarth, A. Hansen J.Chem.Phys., 143, (2015), 054107 
   

================================================================================

----- Orbital basis set information -----
Your calculation utilizes the basis: def2-mSVP

----- AuxJ basis set information -----
Your calculation utilizes the auxiliary basis: def2/J
   F. Weigend, Phys. Chem. Chem. Phys. 8, 1057 (2006).

================================================================================
                                        WARNINGS
                       Please study these warnings very carefully!
================================================================================


INFO   : the flag for use of the SHARK integral package has been found!

================================================================================
                                       INPUT FILE
================================================================================
NAME = pbeh-3c.inp
|  1> ! PBEh-3c def2/J TightSCF DefGrid3
|  2> 
|  3> %maxcore 60000
|  4> 
|  5> %pal
|  6> nprocs 4
|  7> end
|  8> 
|  9> *xyzfile 0 1 BN_Corannulene.xyz
| 10> 
| 11>                          ****END OF INPUT****
================================================================================

                       ****************************
                       * Single Point Calculation *
                       ****************************

---------------------------------
CARTESIAN COORDINATES (ANGSTROEM)
---------------------------------
  B      1.109574    0.363853    0.523973
  N     -0.010100    1.235200    0.630112
  B      0.002221    2.532369    0.053423
  N      1.329412    3.020796   -0.264219
  B      2.503105    2.181530   -0.267241
  N      2.407878    0.775968    0.100898
  B     -1.149720    0.389696    0.526760
  N     -2.438363    0.826913    0.110635
  B     -2.507786    2.235604   -0.251003
  N     -1.315852    3.050061   -0.253383
  N      0.671910   -0.996159    0.576858
  N     -0.743152   -0.984635    0.566391
  B      1.452565   -2.044281    0.033610
  N      2.831469   -1.659771   -0.217914
  B      3.312699   -0.304179   -0.242132
  B     -1.534866   -2.036589    0.043644
  B     -0.637229   -3.441978   -0.337039
  N      0.782768   -3.286950   -0.298929
  B     -3.364610   -0.239913   -0.229470
  N     -2.902874   -1.601007   -0.207594
  H     -4.475541    0.012592   -0.578190
  H     -3.564642   -2.296357   -0.512812
  H     -1.052024   -4.509792   -0.681520
  H      1.346294   -4.066542   -0.607082
  H      3.485302   -2.365063   -0.518032
  H      4.427738   -0.078212   -0.593945
  H      3.539412    2.637375   -0.637934
  H      1.456386    3.950107   -0.632204
  H     -1.425391    3.982919   -0.618056
  H     -3.536586    2.716449   -0.610633

----------------------------
CARTESIAN COORDINATES (A.U.)
----------------------------
  NO LB      ZA    FRAG     MASS         X           Y           Z
   0 B     5.0000    0    10.810    2.096792    0.687582    0.990165
   1 N     7.0000    0    14.007   -0.019087    2.334190    1.190739
   2 B     5.0000    0    10.810    0.004197    4.785484    0.100955
   3 N     7.0000    0    14.007    2.512224    5.708477   -0.499301
   4 B     5.0000    0    10.810    4.730184    4.122494   -0.505013
   5 N     7.0000    0    14.007    4.550231    1.466367    0.190671
   6 B     5.0000    0    10.810   -2.172657    0.736418    0.995431
   7 N     7.0000    0    14.007   -4.607839    1.562639    0.209069
   8 B     5.0000    0    10.810   -4.739029    4.224680   -0.474327
   9 N     7.0000    0    14.007   -2.486599    5.763780   -0.478824
  10 N     7.0000    0    14.007    1.269725   -1.882469    1.090104
  11 N     7.0000    0    14.007   -1.404355   -1.860690    1.070324
  12 B     5.0000    0    10.810    2.744950   -3.863131    0.063513
  13 N     7.0000    0    14.007    5.350700   -3.136513   -0.411799
  14 B     5.0000    0    10.810    6.260094   -0.574815   -0.457564
  15 B     5.0000    0    10.810   -2.900477   -3.848595    0.082475
  16 B     5.0000    0    10.810   -1.204188   -6.504396   -0.636911
  17 N     7.0000    0    14.007    1.479217   -6.211436   -0.564895
  18 B     5.0000    0    10.810   -6.358191   -0.453369   -0.433636
  19 N     7.0000    0    14.007   -5.485637   -3.025465   -0.392297
  20 H     1.0000    0     1.008   -8.457547    0.023796   -1.092622
  21 H     1.0000    0     1.008   -6.736196   -4.339486   -0.969074
  22 H     1.0000    0     1.008   -1.988037   -8.522273   -1.287887
  23 H     1.0000    0     1.008    2.544127   -7.684651   -1.147219
  24 H     1.0000    0     1.008    6.586266   -4.469321   -0.978939
  25 H     1.0000    0     1.008    8.367213   -0.147799   -1.122394
  26 H     1.0000    0     1.008    6.688519    4.983916   -1.205521
  27 H     1.0000    0     1.008    2.752171    7.464621   -1.194692
  28 H     1.0000    0     1.008   -2.693599    7.526627   -1.167957
  29 H     1.0000    0     1.008   -6.683178    5.133344   -1.153929

--------------------------------
INTERNAL COORDINATES (ANGSTROEM)
--------------------------------
 B      0   0   0     0.000000000000     0.00000000     0.00000000
 N      1   0   0     1.422737929273     0.00000000     0.00000000
 B      2   1   0     1.419637201069   121.49837382     0.00000000
 N      3   2   1     1.449445607588   113.88328986   342.15016644
 B      4   3   2     1.442890694211   123.31748778    12.50609764
 N      1   2   3     1.426332236513   124.16087246    13.59274030
 B      2   1   3     1.422776540595   105.12882719   142.93558267
 N      7   2   1     1.422996546036   124.33369486   203.35410767
 B      8   7   2     1.456026238334   114.39795536     1.71203779
 N      9   8   7     1.443625000854   120.45595457     3.86950860
 N      1   2   3     1.429678595481   109.81121972   207.76764345
 N     11   1   2     1.415147640797   107.34285631     6.42473943
 B     11   1   2     1.415309259935   121.42762474   157.10482897
 N     13  11   1     1.453440073656   113.19123577    16.03643437
 B     14  13  11     1.438679965445   124.71721927   345.38596796
 B     12  11   1     1.416574338758   123.74799751   151.61417300
 B     16  12  11     1.710494671907   113.51411386     9.74467036
 N     17  16  12     1.428942248925   115.24072880   349.65597827
 B      8   7   2     1.453176314693   114.84034744   165.92655180
 N     19   8   7     1.437447678389   119.13268581   356.03837083
 H     19   8   7     1.191441889366   120.48001326   179.27428168
 H     20  19   8     1.007276246374   115.97701868   184.10402281
 H     17  16  12     1.196223417768   127.99187745   173.06426776
 H     18  17  16     1.010090602063   117.55071661   185.99194517
 H     14  13  11     1.007474304839   118.81943791   173.98322149
 H     15  14  13     1.190859369151   119.79930679   187.84776710
 H      5   4   3     1.191276227498   119.05798742   174.33966204
 H      4   3   2     1.007548993149   120.41372499   183.25704275
 H     10   9   8     1.007576655952   115.66905812   173.06176784
 H      9   8   7     1.191206521735   120.44444205   180.25659007

---------------------------
INTERNAL COORDINATES (A.U.)
---------------------------
 B      0   0   0     0.000000000000     0.00000000     0.00000000
 N      1   0   0     2.688585046668     0.00000000     0.00000000
 B      2   1   0     2.682725519546   121.49837382     0.00000000
 N      3   2   1     2.739055244356   113.88328986   342.15016644
 B      4   3   2     2.726668253242   123.31748778    12.50609764
 N      1   2   3     2.695377302994   124.16087246    13.59274030
 B      2   1   3     2.688658011493   105.12882719   142.93558267
 N      7   2   1     2.689073761523   124.33369486   203.35410767
 B      8   7   2     2.751490834256   114.39795536     1.71203779
 N      9   8   7     2.728055891695   120.45595457     3.86950860
 N      1   2   3     2.701701004988   109.81121972   207.76764345
 N     11   1   2     2.674241480171   107.34285631     6.42473943
 B     11   1   2     2.674546896080   121.42762474   157.10482897
 N     13  11   1     2.746603691277   113.19123577    16.03643437
 B     14  13  11     2.718711129050   124.71721927   345.38596796
 B     12  11   1     2.676937548592   123.74799751   151.61417300
 B     16  12  11     3.232366483436   113.51411386     9.74467036
 N     17  16  12     2.700309511659   115.24072880   349.65597827
 B      8   7   2     2.746105259071   114.84034744   165.92655180
 N     19   8   7     2.716382443996   119.13268581   356.03837083
 H     19   8   7     2.251498875383   120.48001326   179.27428168
 H     20  19   8     1.903476246851   115.97701868   184.10402281
 H     17  16  12     2.260534654565   127.99187745   173.06426776
 H     18  17  16     1.908794608347   117.55071661   185.99194517
 H     14  13  11     1.903850523108   118.81943791   173.98322149
 H     15  14  13     2.250398071710   119.79930679   187.84776710
 H      5   4   3     2.251185819822   119.05798742   174.33966204
 H      4   3   2     1.903991663559   120.41372499   183.25704275
 H     10   9   8     1.904043938682   115.66905812   173.06176784
 H      9   8   7     2.251054095019   120.44444205   180.25659007

---------------------
BASIS SET INFORMATION
---------------------
There are 3 groups of distinct atoms

 Group   1 Type B   : 8s4p1d contracted to 4s2p1d pattern {5111/31/1}
 Group   2 Type N   : 8s4p1d contracted to 4s2p1d pattern {5111/31/1}
 Group   3 Type H   : 4s contracted to 2s pattern {31}

Atom   0B    basis set group =>   1
Atom   1N    basis set group =>   2
Atom   2B    basis set group =>   1
Atom   3N    basis set group =>   2
Atom   4B    basis set group =>   1
Atom   5N    basis set group =>   2
Atom   6B    basis set group =>   1
Atom   7N    basis set group =>   2
Atom   8B    basis set group =>   1
Atom   9N    basis set group =>   2
Atom  10N    basis set group =>   2
Atom  11N    basis set group =>   2
Atom  12B    basis set group =>   1
Atom  13N    basis set group =>   2
Atom  14B    basis set group =>   1
Atom  15B    basis set group =>   1
Atom  16B    basis set group =>   1
Atom  17N    basis set group =>   2
Atom  18B    basis set group =>   1
Atom  19N    basis set group =>   2
Atom  20H    basis set group =>   3
Atom  21H    basis set group =>   3
Atom  22H    basis set group =>   3
Atom  23H    basis set group =>   3
Atom  24H    basis set group =>   3
Atom  25H    basis set group =>   3
Atom  26H    basis set group =>   3
Atom  27H    basis set group =>   3
Atom  28H    basis set group =>   3
Atom  29H    basis set group =>   3
---------------------------------
AUXILIARY/J BASIS SET INFORMATION
---------------------------------
There are 3 groups of distinct atoms

 Group   1 Type B   : 12s5p4d2f1g contracted to 6s4p3d1f1g pattern {711111/2111/211/2/1}
 Group   2 Type N   : 12s5p4d2f1g contracted to 6s4p3d1f1g pattern {711111/2111/211/2/1}
 Group   3 Type H   : 5s2p1d contracted to 3s1p1d pattern {311/2/1}

Atom   0B    basis set group =>   1
Atom   1N    basis set group =>   2
Atom   2B    basis set group =>   1
Atom   3N    basis set group =>   2
Atom   4B    basis set group =>   1
Atom   5N    basis set group =>   2
Atom   6B    basis set group =>   1
Atom   7N    basis set group =>   2
Atom   8B    basis set group =>   1
Atom   9N    basis set group =>   2
Atom  10N    basis set group =>   2
Atom  11N    basis set group =>   2
Atom  12B    basis set group =>   1
Atom  13N    basis set group =>   2
Atom  14B    basis set group =>   1
Atom  15B    basis set group =>   1
Atom  16B    basis set group =>   1
Atom  17N    basis set group =>   2
Atom  18B    basis set group =>   1
Atom  19N    basis set group =>   2
Atom  20H    basis set group =>   3
Atom  21H    basis set group =>   3
Atom  22H    basis set group =>   3
Atom  23H    basis set group =>   3
Atom  24H    basis set group =>   3
Atom  25H    basis set group =>   3
Atom  26H    basis set group =>   3
Atom  27H    basis set group =>   3
Atom  28H    basis set group =>   3
Atom  29H    basis set group =>   3


           ************************************************************
           *        Program running with 4 parallel MPI-processes     *
           *              working on a common directory               *
           ************************************************************
------------------------------------------------------------------------------
                           ORCA GTO INTEGRAL CALCULATION
                           -- RI-GTO INTEGRALS CHOSEN --
------------------------------------------------------------------------------
------------------------------------------------------------------------------
                   ___                                                        
                  /   \      - P O W E R E D   B Y -                         
                 /     \                                                     
                 |  |  |   _    _      __       _____    __    __             
                 |  |  |  | |  | |    /  \     |  _  \  |  |  /  |          
                  \  \/   | |  | |   /    \    | | | |  |  | /  /          
                 / \  \   | |__| |  /  /\  \   | |_| |  |  |/  /          
                |  |  |   |  __  | /  /__\  \  |    /   |      \           
                |  |  |   | |  | | |   __   |  |    \   |  |\   \          
                \     /   | |  | | |  |  |  |  | |\  \  |  | \   \       
                 \___/    |_|  |_| |__|  |__|  |_| \__\ |__|  \__/        
                                                                              
                      - O R C A' S   B I G   F R I E N D -                    
                                      &                                       
                       - I N T E G R A L  F E E D E R -                       
                                                                              
 v1 FN, 2020, v2 2021                                                         
------------------------------------------------------------------------------


Reading SHARK input file pbeh-3c.SHARKINP.tmp ... ok
----------------------
SHARK INTEGRAL PACKAGE
----------------------

Number of atoms                             ...     30
Number of basis functions                   ...    320
Number of shells                            ...    160
Maximum angular momentum                    ...      2
Integral batch strategy                     ... SHARK/LIBINT Hybrid
RI-J (if used) integral strategy            ... SPLIT-RIJ (Revised 2003 algorithm where possible)
Printlevel                                  ...      1
Contraction scheme used                     ... SEGMENTED contraction
Coulomb Range Separation                    ... NOT USED
Exchange Range Separation                   ... NOT USED
Finite Nucleus Model                        ... NOT USED
Auxiliary Coulomb fitting basis             ... AVAILABLE
   # of basis functions in Aux-J            ...   1090
   # of shells in Aux-J                     ...    350
   Maximum angular momentum in Aux-J        ...      4
Auxiliary J/K fitting basis                 ... NOT available
Auxiliary Correlation fitting basis         ... NOT available
Auxiliary 'external' fitting basis          ... NOT available
Integral threshold                          ...     2.500000e-11
Primitive cut-off                           ...     2.500000e-12
Primitive pair pre-selection threshold      ...     2.500000e-12

Calculating pre-screening integrals         ... done (  0.1 sec) Dimension = 160
Organizing shell pair data                  ... done (  0.6 sec)
Shell pair information
Total number of shell pairs                 ...     12880
Shell pairs after pre-screening             ...      9909
Total number of primitive shell pairs       ...     45440
Primitive shell pairs kept                  ...     22842
          la=0 lb=0:   3358 shell pairs
          la=1 lb=0:   3492 shell pairs
          la=1 lb=1:    800 shell pairs
          la=2 lb=0:   1358 shell pairs
          la=2 lb=1:    737 shell pairs
          la=2 lb=2:    164 shell pairs

Calculating one electron integrals          ... done (  0.0 sec)
Calculating RI/J V-Matrix + Cholesky decomp.... done (  1.1 sec)
Calculating Nuclear repulsion               ... done (  0.0 sec) ENN=   1355.217897491510 Eh

SHARK setup successfully completed in   3.5 seconds

Maximum memory used throughout the entire GTOINT-calculation: 20.9 MB


           ************************************************************
           *        Program running with 4 parallel MPI-processes     *
           *              working on a common directory               *
           ************************************************************
-------------------------------------------------------------------------------
                                 ORCA SCF
-------------------------------------------------------------------------------

------------
SCF SETTINGS
------------
Hamiltonian:
 Density Functional     Method          .... DFT(GTOs)
 Exchange Functional    Exchange        .... PBE
   PBE kappa parameter   XKappa         ....  1.024500
   PBE mue parameter    XMuePBE         ....  0.123457
 Correlation Functional Correlation     .... PBE
   PBE beta parameter  CBetaPBE         ....  0.030000
 LDA part of GGA corr.  LDAOpt          .... PW91-LDA
 Gradients option       PostSCFGGA      .... off
 Hybrid DFT is turned on
   Fraction HF Exchange ScalHFX         ....  0.420000
   Scaling of DF-GGA-X  ScalDFX         ....  0.580000
   Scaling of DF-GGA-C  ScalDFC         ....  1.000000
   Scaling of DF-LDA-C  ScalLDAC        ....  1.000000
   Perturbative correction              ....  0.000000
   Density functional embedding theory  .... OFF
 RI-approximation to the Coulomb term is turned on
   Number of AuxJ basis functions       .... 1090
   RIJ-ON(X) (HFX calculated with O(N)) .... on
   Number of AuxJ basis functions       .... 1090
   RIJ-COSX (HFX calculated with COS-X)).... on


General Settings:
 Integral files         IntName         .... pbeh-3c
 Hartree-Fock type      HFTyp           .... RHF
 Total Charge           Charge          ....    0
 Multiplicity           Mult            ....    1
 Number of Electrons    NEL             ....  130
 Basis Dimension        Dim             ....  320
 Nuclear Repulsion      ENuc            ....   1355.2178974915 Eh

Convergence Acceleration:
 DIIS                   CNVDIIS         .... on
   Start iteration      DIISMaxIt       ....    12
   Startup error        DIISStart       ....  0.200000
   # of expansion vecs  DIISMaxEq       ....     5
   Bias factor          DIISBfac        ....   1.050
   Max. coefficient     DIISMaxC        ....  10.000
 Trust-Rad. Augm. Hess. CNVTRAH         .... auto
   Auto Start mean grad. ratio tolernc. ....  1.125000
   Auto Start start iteration           ....    20
   Auto Start num. interpolation iter.  ....    10
   Max. Number of Micro iterations      ....    16
   Max. Number of Macro iterations      .... Maxiter - #DIIS iter
   Number of Davidson start vectors     ....     2
   Converg. threshold I  (grad. norm)   ....   1.000e-05
   Converg. threshold II (energy diff.) ....   1.000e-08
   Grad. Scal. Fac. for Micro threshold ....   0.100
   Minimum threshold for Micro iter.    ....   0.010
   NR start threshold (gradient norm)   ....   0.001
   Initial trust radius                 ....   0.400
   Minimum AH scaling param. (alpha)    ....   1.000
   Maximum AH scaling param. (alpha)    .... 1000.000
   Orbital update algorithm             .... Taylor
   White noise on init. David. guess    .... on
   Maximum white noise                  ....   0.010
   Quad. conv. algorithm                .... NR
   COSX micro iterations for RIJONX calc.... off
 SOSCF                  CNVSOSCF        .... on
   Start iteration      SOSCFMaxIt      ....   150
   Startup grad/error   SOSCFStart      ....  0.003300
 Level Shifting         CNVShift        .... on
   Level shift para.    LevelShift      ....    0.2500
   Turn off err/grad.   ShiftErr        ....    0.0010
 Zerner damping         CNVZerner       .... off
 Static damping         CNVDamp         .... on
   Fraction old density DampFac         ....    0.7000
   Max. Damping (<1)    DampMax         ....    0.9800
   Min. Damping (>=0)   DampMin         ....    0.0000
   Turn off err/grad.   DampErr         ....    0.1000
 Fernandez-Rico         CNVRico         .... off

SCF Procedure:
 Maximum # iterations   MaxIter         ....   125
 SCF integral mode      SCFMode         .... Direct
   Integral package                     .... SHARK and LIBINT hybrid scheme
 Reset frequency        DirectResetFreq ....    20
 Integral Threshold     Thresh          ....  2.500e-11 Eh
 Primitive CutOff       TCut            ....  2.500e-12 Eh

Convergence Tolerance:
 Convergence Check Mode ConvCheckMode   .... Total+1el-Energy
 Convergence forced     ConvForced      .... 0
 Energy Change          TolE            ....  1.000e-08 Eh
 1-El. energy change                    ....  1.000e-05 Eh
 Orbital Gradient       TolG            ....  1.000e-05
 Orbital Rotation angle TolX            ....  1.000e-05
 DIIS Error             TolErr          ....  5.000e-07


Diagonalization of the overlap matrix:
Smallest eigenvalue                        ... 2.898e-03
Time for diagonalization                   ...    0.019 sec
Threshold for overlap eigenvalues          ... 1.000e-08
Number of eigenvalues below threshold      ... 0
Time for construction of square roots      ...    0.222 sec
Total time needed                          ...    0.409 sec

--------------------------------
INITIAL GUESS: MINIMAL BASIS EHT
--------------------------------
The minimal basis has 110 functions
EHT matrix was diagonalized
Basis set overlap was calculated now projecting the orbitals
Using GuessMode=FMatrix for the initial guess
C*T matrix was formed
Effective Fockian was calculated
Effective Fockian was diagonalized
Initial density was built
                      ------------------
                      INITIAL GUESS DONE
                      ------------------
-------------------
DFT GRID GENERATION
-------------------

General Integration Accuracy     IntAcc      ... 4.959
Radial Grid Type                 RadialGrid  ... OptM3 with GC (2021)
Angular Grid (max. ang.)         AngularGrid ... 6 (Lebedev-590)
Angular grid pruning method      GridPruning ... 4 (adaptive)
Weight generation scheme         WeightScheme... Becke
Basis function cutoff            BFCut       ... 1.0000e-11
Integration weight cutoff        WCut        ... 1.0000e-14
Angular grids for H and He will be reduced by one unit
Partially contracted basis set               ... off
Rotationally invariant grid construction     ... off

Total number of grid points                  ...   366326
Total number of batches                      ...     5741
Average number of points per batch           ...       63
Average number of grid points per atom       ...    12211
Time for grid setup =    8.267 sec

--------------------
COSX GRID GENERATION
--------------------

GRIDX 1
-------
General Integration Accuracy     IntAcc      ... 4.020
Radial Grid Type                 RadialGrid  ... OptM3 with GC (2021)
Angular Grid (max. ang.)         AngularGrid ... 2 (Lebedev-110)
Angular grid pruning method      GridPruning ... 4 (adaptive)
Weight generation scheme         WeightScheme... Becke
Basis function cutoff            BFCut       ... 1.0000e-11
Integration weight cutoff        WCut        ... 1.0000e-14
Angular grids for H and He will be reduced by one unit
Partially contracted basis set               ... on
Rotationally invariant grid construction     ... off

Total number of grid points                  ...    42184
Total number of batches                      ...      674
Average number of points per batch           ...       62
Average number of grid points per atom       ...     1406
UseSFitting                                  ... on

GRIDX 2
-------
General Integration Accuracy     IntAcc      ... 4.338
Radial Grid Type                 RadialGrid  ... OptM3 with GC (2021)
Angular Grid (max. ang.)         AngularGrid ... 3 (Lebedev-194)
Angular grid pruning method      GridPruning ... 4 (adaptive)
Weight generation scheme         WeightScheme... Becke
Basis function cutoff            BFCut       ... 1.0000e-11
Integration weight cutoff        WCut        ... 1.0000e-14
Angular grids for H and He will be reduced by one unit
Partially contracted basis set               ... on
Rotationally invariant grid construction     ... off

Total number of grid points                  ...    92629
Total number of batches                      ...     1462
Average number of points per batch           ...       63
Average number of grid points per atom       ...     3088
UseSFitting                                  ... on

GRIDX 3
-------
General Integration Accuracy     IntAcc      ... 4.871
Radial Grid Type                 RadialGrid  ... OptM3 with GC (2021)
Angular Grid (max. ang.)         AngularGrid ... 4 (Lebedev-302)
Angular grid pruning method      GridPruning ... 4 (adaptive)
Weight generation scheme         WeightScheme... Becke
Basis function cutoff            BFCut       ... 1.0000e-11
Integration weight cutoff        WCut        ... 1.0000e-14
Angular grids for H and He will be reduced by one unit
Partially contracted basis set               ... on
Rotationally invariant grid construction     ... off

Total number of grid points                  ...   170134
Total number of batches                      ...     2674
Average number of points per batch           ...       63
Average number of grid points per atom       ...     5671
UseSFitting                                  ... on

Time for X-Grid setup             =    6.931 sec

--------------
SCF ITERATIONS
--------------
ITER       Energy         Delta-E        Max-DP      RMS-DP      [F,P]     Damp
               ***  Starting incremental Fock matrix formation  ***
  0   -798.4887619074   0.000000000000 0.14814569  0.00307249  0.4077256 0.7000
  1   -799.4015222258  -0.912760318442 0.09758891  0.00217562  0.2692000 0.7000
                               ***Turning on DIIS***
  2   -799.9443370247  -0.542814798837 0.05696238  0.00141713  0.1875020 0.7000
  3   -800.3061692012  -0.361832176532 0.03459892  0.00096161  0.1355362 0.7000
  4   -800.5610817300  -0.254912528824 0.07755171  0.00232133  0.0950057 0.0000
  5   -801.1745027007  -0.613420970666 0.01191367  0.00019894  0.0119771 0.0000
  6   -801.1756480826  -0.001145381923 0.00265750  0.00006501  0.0047589 0.0000
                      *** Initiating the SOSCF procedure ***
                           *** Shutting down DIIS ***
                      *** Re-Reading the Fockian *** 
                      *** Removing any level shift *** 
ITER      Energy       Delta-E        Grad      Rot      Max-DP    RMS-DP
  7   -801.17594102  -0.0002929344  0.000688  0.000688  0.000877  0.000030
               *** Restarting incremental Fock matrix formation ***
  8   -801.17597476  -0.0000337446  0.000386  0.001535  0.000552  0.000018
  9   -801.17598117  -0.0000064124  0.000096  0.000742  0.000478  0.000010
 10   -801.17598157  -0.0000003961  0.000058  0.000137  0.000180  0.000003
 11   -801.17598194  -0.0000003721  0.000016  0.000084  0.000070  0.000001
 12   -801.17598196  -0.0000000206  0.000014  0.000044  0.000034  0.000001
                  ***Gradient check signals convergence***
              ***Rediagonalizing the Fockian in SOSCF/NRSCF***

               *****************************************************
               *                     SUCCESS                       *
               *           SCF CONVERGED AFTER  13 CYCLES          *
               *****************************************************

Old exchange energy                            =    -45.932961722 Eh
New exchange energy                            =    -45.932946706 Eh
Exchange energy change after final integration =      0.000015016 Eh
Total energy after final integration           =   -801.175966950 Eh
Final COS-X integration done in                =    35.494 sec

----------------
TOTAL SCF ENERGY
----------------

Total Energy       :         -801.17596695 Eh          -21801.10641 eV

Components:
Nuclear Repulsion  :         1355.21789749 Eh           36877.35380 eV
Electronic Energy  :        -2156.39386444 Eh          -58678.46021 eV
One Electron Energy:        -3781.73903967 Eh         -102906.35093 eV
Two Electron Energy:         1625.34517523 Eh           44227.89072 eV
Max COSX asymmetry :            0.00000342 Eh               0.00009 eV

Virial components:
Potential Energy   :        -1596.00282029 Eh          -43429.44465 eV
Kinetic Energy     :          794.82685334 Eh           21628.33824 eV
Virial Ratio       :            2.00798805


DFT components:
N(Alpha)           :       65.000000992028 electrons
N(Beta)            :       65.000000992028 electrons
N(Total)           :      130.000001984055 electrons
E(X)               :      -60.943447260410 Eh       
E(C)               :       -5.690729631882 Eh       
E(XC)              :      -66.634176892291 Eh       
DFET-embed. en.    :        0.000000000000 Eh       

---------------
SCF CONVERGENCE
---------------

  Last Energy change         ...   -3.0990e-09  Tolerance :   1.0000e-08
  Last MAX-Density change    ...    2.4425e-15  Tolerance :   1.0000e-07
  Last RMS-Density change    ...    3.2163e-17  Tolerance :   5.0000e-09
  Last Orbital Gradient      ...    1.2190e-06  Tolerance :   1.0000e-05
  Last Orbital Rotation      ...    1.9341e-06  Tolerance :   1.0000e-05

             **** THE GBW FILE WAS UPDATED (pbeh-3c.gbw) ****
             **** DENSITY pbeh-3c.scfp WAS UPDATED ****
             **** ENERGY FILE WAS UPDATED (pbeh-3c.en.tmp) ****
             **** THE GBW FILE WAS UPDATED (pbeh-3c.gbw) ****
             **** DENSITY pbeh-3c.scfp WAS UPDATED ****
----------------
ORBITAL ENERGIES
----------------

  NO   OCC          E(Eh)            E(eV) 
   0   2.0000     -14.651543      -398.6888 
   1   2.0000     -14.649132      -398.6232 
   2   2.0000     -14.637735      -398.3130 
   3   2.0000     -14.629755      -398.0959 
   4   2.0000     -14.629158      -398.0796 
   5   2.0000     -14.628714      -398.0676 
   6   2.0000     -14.620860      -397.8538 
   7   2.0000     -14.618055      -397.7775 
   8   2.0000     -14.616019      -397.7221 
   9   2.0000     -14.600159      -397.2905 
  10   2.0000      -6.990074      -190.2096 
  11   2.0000      -6.989942      -190.2060 
  12   2.0000      -6.979589      -189.9243 
  13   2.0000      -6.978363      -189.8909 
  14   2.0000      -6.976612      -189.8433 
  15   2.0000      -6.973483      -189.7581 
  16   2.0000      -6.971833      -189.7132 
  17   2.0000      -6.970058      -189.6649 
  18   2.0000      -6.951524      -189.1606 
  19   2.0000      -6.948755      -189.0852 
  20   2.0000      -1.093891       -29.7663 
  21   2.0000      -1.004420       -27.3317 
  22   2.0000      -0.989944       -26.9377 
  23   2.0000      -0.971101       -26.4250 
  24   2.0000      -0.959875       -26.1195 
  25   2.0000      -0.951446       -25.8902 
  26   2.0000      -0.935276       -25.4502 
  27   2.0000      -0.924064       -25.1451 
  28   2.0000      -0.919484       -25.0204 
  29   2.0000      -0.841856       -22.9081 
  30   2.0000      -0.679616       -18.4933 
  31   2.0000      -0.640665       -17.4334 
  32   2.0000      -0.636100       -17.3092 
  33   2.0000      -0.613696       -16.6995 
  34   2.0000      -0.607816       -16.5395 
  35   2.0000      -0.595887       -16.2149 
  36   2.0000      -0.578600       -15.7445 
  37   2.0000      -0.569829       -15.5058 
  38   2.0000      -0.554754       -15.0956 
  39   2.0000      -0.549234       -14.9454 
  40   2.0000      -0.537739       -14.6326 
  41   2.0000      -0.527884       -14.3645 
  42   2.0000      -0.512662       -13.9502 
  43   2.0000      -0.496835       -13.5196 
  44   2.0000      -0.487839       -13.2748 
  45   2.0000      -0.482761       -13.1366 
  46   2.0000      -0.476385       -12.9631 
  47   2.0000      -0.470451       -12.8016 
  48   2.0000      -0.450407       -12.2562 
  49   2.0000      -0.434104       -11.8126 
  50   2.0000      -0.427351       -11.6288 
  51   2.0000      -0.421956       -11.4820 
  52   2.0000      -0.419553       -11.4166 
  53   2.0000      -0.403294       -10.9742 
  54   2.0000      -0.397232       -10.8092 
  55   2.0000      -0.384050       -10.4505 
  56   2.0000      -0.380228       -10.3465 
  57   2.0000      -0.371264       -10.1026 
  58   2.0000      -0.366388        -9.9699 
  59   2.0000      -0.355530        -9.6745 
  60   2.0000      -0.332893        -9.0585 
  61   2.0000      -0.324372        -8.8266 
  62   2.0000      -0.316524        -8.6130 
  63   2.0000      -0.310744        -8.4558 
  64   2.0000      -0.269438        -7.3318 
  65   0.0000      -0.017802        -0.4844 
  66   0.0000       0.018464         0.5024 
  67   0.0000       0.048743         1.3264 
  68   0.0000       0.051503         1.4015 
  69   0.0000       0.057201         1.5565 
  70   0.0000       0.072254         1.9661 
  71   0.0000       0.107090         2.9141 
  72   0.0000       0.116714         3.1760 
  73   0.0000       0.118011         3.2112 
  74   0.0000       0.124886         3.3983 
  75   0.0000       0.137160         3.7323 
  76   0.0000       0.139995         3.8095 
  77   0.0000       0.146071         3.9748 
  78   0.0000       0.149280         4.0621 
  79   0.0000       0.157950         4.2980 
  80   0.0000       0.173961         4.7337 
  81   0.0000       0.183236         4.9861 
  82   0.0000       0.188275         5.1232 
  83   0.0000       0.192227         5.2308 
  84   0.0000       0.201551         5.4845 
  85   0.0000       0.210194         5.7197 
  86   0.0000       0.215193         5.8557 
  87   0.0000       0.225169         6.1272 
  88   0.0000       0.227343         6.1863 
  89   0.0000       0.243750         6.6328 
  90   0.0000       0.244869         6.6632 
  91   0.0000       0.255481         6.9520 
  92   0.0000       0.263024         7.1573 
  93   0.0000       0.266608         7.2548 
  94   0.0000       0.271115         7.3774 
  95   0.0000       0.279369         7.6020 
  96   0.0000       0.287053         7.8111 
  97   0.0000       0.295165         8.0319 
  98   0.0000       0.303914         8.2699 
  99   0.0000       0.323618         8.8061 
 100   0.0000       0.325996         8.8708 
 101   0.0000       0.332485         9.0474 
 102   0.0000       0.337645         9.1878 
 103   0.0000       0.341985         9.3059 
 104   0.0000       0.348449         9.4818 
 105   0.0000       0.351433         9.5630 
 106   0.0000       0.354916         9.6578 
 107   0.0000       0.361047         9.8246 
 108   0.0000       0.362132         9.8541 
 109   0.0000       0.374108        10.1800 
 110   0.0000       0.375065        10.2060 
 111   0.0000       0.395285        10.7563 
 112   0.0000       0.407281        11.0827 
 113   0.0000       0.412366        11.2211 
 114   0.0000       0.417416        11.3585 
 115   0.0000       0.420893        11.4531 
 116   0.0000       0.427180        11.6241 
 117   0.0000       0.435647        11.8546 
 118   0.0000       0.442524        12.0417 
 119   0.0000       0.444808        12.1038 
 120   0.0000       0.455143        12.3851 
 121   0.0000       0.468763        12.7557 
 122   0.0000       0.476550        12.9676 
 123   0.0000       0.479738        13.0543 
 124   0.0000       0.488973        13.3056 
 125   0.0000       0.495771        13.4906 
 126   0.0000       0.522137        14.2081 
 127   0.0000       0.538523        14.6539 
 128   0.0000       0.540562        14.7094 
 129   0.0000       0.546162        14.8618 
 130   0.0000       0.568252        15.4629 
 131   0.0000       0.592635        16.1264 
 132   0.0000       0.603567        16.4239 
 133   0.0000       0.610524        16.6132 
 134   0.0000       0.623839        16.9755 
 135   0.0000       0.648183        17.6380 
 136   0.0000       0.655249        17.8302 
 137   0.0000       0.661603        18.0031 
 138   0.0000       0.672074        18.2881 
 139   0.0000       0.710961        19.3462 
 140   0.0000       0.715350        19.4657 
 141   0.0000       0.725842        19.7512 
 142   0.0000       0.738618        20.0988 
 143   0.0000       0.745465        20.2851 
 144   0.0000       0.762741        20.7552 
 145   0.0000       0.771878        21.0039 
 146   0.0000       0.781662        21.2701 
 147   0.0000       0.791230        21.5305 
 148   0.0000       0.798379        21.7250 
 149   0.0000       0.808527        22.0011 
 150   0.0000       0.907924        24.7059 
 151   0.0000       0.917255        24.9598 
 152   0.0000       0.933519        25.4023 
 153   0.0000       0.945673        25.7331 
 154   0.0000       0.964750        26.2522 
 155   0.0000       0.970345        26.4044 
 156   0.0000       0.984340        26.7852 
 157   0.0000       0.992486        27.0069 
 158   0.0000       1.002344        27.2752 
 159   0.0000       1.007440        27.4138 
 160   0.0000       1.013272        27.5725 
 161   0.0000       1.020337        27.7648 
 162   0.0000       1.036317        28.1996 
 163   0.0000       1.040607        28.3163 
 164   0.0000       1.049503        28.5584 
 165   0.0000       1.058324        28.7985 
 166   0.0000       1.062939        28.9240 
 167   0.0000       1.067665        29.0527 
 168   0.0000       1.074028        29.2258 
 169   0.0000       1.104752        30.0618 
 170   0.0000       1.108667        30.1684 
 171   0.0000       1.117497        30.4086 
 172   0.0000       1.140971        31.0474 
 173   0.0000       1.159045        31.5392 
 174   0.0000       1.160753        31.5857 
 175   0.0000       1.187791        32.3214 
 176   0.0000       1.208824        32.8938 
 177   0.0000       1.257890        34.2289 
 178   0.0000       1.264195        34.4005 
 179   0.0000       1.276453        34.7341 
 180   0.0000       1.295112        35.2418 
 181   0.0000       1.298029        35.3212 
 182   0.0000       1.301673        35.4203 
 183   0.0000       1.319660        35.9098 
 184   0.0000       1.339855        36.4593 
 185   0.0000       1.352498        36.8033 
 186   0.0000       1.361612        37.0514 
 187   0.0000       1.374148        37.3925 
 188   0.0000       1.380379        37.5620 
 189   0.0000       1.389123        37.8000 
 190   0.0000       1.432196        38.9720 
 191   0.0000       1.443053        39.2675 
 192   0.0000       1.446515        39.3617 
 193   0.0000       1.473583        40.0982 
 194   0.0000       1.489169        40.5224 
 195   0.0000       1.505378        40.9634 
 196   0.0000       1.514588        41.2140 
 197   0.0000       1.523650        41.4606 
 198   0.0000       1.528130        41.5825 
 199   0.0000       1.536597        41.8129 
 200   0.0000       1.545566        42.0570 
 201   0.0000       1.554859        42.3099 
 202   0.0000       1.563379        42.5417 
 203   0.0000       1.564698        42.5776 
 204   0.0000       1.572248        42.7831 
 205   0.0000       1.576008        42.8853 
 206   0.0000       1.578241        42.9461 
 207   0.0000       1.593943        43.3734 
 208   0.0000       1.602583        43.6085 
 209   0.0000       1.627952        44.2988 
 210   0.0000       1.640843        44.6496 
 211   0.0000       1.645209        44.7684 
 212   0.0000       1.660459        45.1834 
 213   0.0000       1.672585        45.5133 
 214   0.0000       1.698894        46.2293 
 215   0.0000       1.773091        48.2483 
 216   0.0000       1.800891        49.0047 
 217   0.0000       1.831508        49.8379 
 218   0.0000       1.848205        50.2922 
 219   0.0000       1.863332        50.7038 
 220   0.0000       1.881467        51.1973 
 221   0.0000       1.907164        51.8966 
 222   0.0000       1.918193        52.1967 
 223   0.0000       1.937574        52.7241 
 224   0.0000       1.939206        52.7685 
 225   0.0000       1.964355        53.4528 
 226   0.0000       1.973129        53.6916 
 227   0.0000       1.994435        54.2713 
 228   0.0000       2.014539        54.8184 
 229   0.0000       2.024614        55.0926 
 230   0.0000       2.031954        55.2923 
 231   0.0000       2.044349        55.6296 
 232   0.0000       2.063983        56.1638 
 233   0.0000       2.070246        56.3343 
 234   0.0000       2.076443        56.5029 
 235   0.0000       2.088770        56.8383 
 236   0.0000       2.096174        57.0398 
 237   0.0000       2.104459        57.2652 
 238   0.0000       2.117457        57.6189 
 239   0.0000       2.137826        58.1732 
 240   0.0000       2.149504        58.4910 
 241   0.0000       2.162650        58.8487 
 242   0.0000       2.171636        59.0932 
 243   0.0000       2.192688        59.6661 
 244   0.0000       2.210013        60.1375 
 245   0.0000       2.228652        60.6447 
 246   0.0000       2.233584        60.7789 
 247   0.0000       2.241605        60.9972 
 248   0.0000       2.247934        61.1694 
 249   0.0000       2.256822        61.4112 
 250   0.0000       2.290229        62.3203 
 251   0.0000       2.292626        62.3855 
 252   0.0000       2.298057        62.5333 
 253   0.0000       2.304064        62.6968 
 254   0.0000       2.327976        63.3474 
 255   0.0000       2.346312        63.8464 
 256   0.0000       2.355032        64.0837 
 257   0.0000       2.370959        64.5171 
 258   0.0000       2.390556        65.0503 
 259   0.0000       2.396857        65.2218 
 260   0.0000       2.415913        65.7403 
 261   0.0000       2.426371        66.0249 
 262   0.0000       2.449207        66.6463 
 263   0.0000       2.474124        67.3243 
 264   0.0000       2.519316        68.5541 
 265   0.0000       2.533924        68.9516 
 266   0.0000       2.553367        69.4807 
 267   0.0000       2.566115        69.8275 
 268   0.0000       2.604368        70.8685 
 269   0.0000       2.611525        71.0632 
 270   0.0000       2.620112        71.2969 
 271   0.0000       2.653528        72.2062 
 272   0.0000       2.660766        72.4031 
 273   0.0000       2.699343        73.4529 
 274   0.0000       2.707757        73.6818 
 275   0.0000       2.735583        74.4390 
 276   0.0000       2.756227        75.0007 
 277   0.0000       2.775019        75.5121 
 278   0.0000       2.791549        75.9619 
 279   0.0000       2.810744        76.4842 
 280   0.0000       2.818844        76.7047 
 281   0.0000       2.833089        77.0923 
 282   0.0000       2.842184        77.3398 
 283   0.0000       2.855976        77.7151 
 284   0.0000       2.893445        78.7346 
 285   0.0000       2.920365        79.4672 
 286   0.0000       2.931730        79.7764 
 287   0.0000       2.942162        80.0603 
 288   0.0000       2.964390        80.6651 
 289   0.0000       2.999524        81.6212 
 290   0.0000       3.021909        82.2303 
 291   0.0000       3.041917        82.7748 
 292   0.0000       3.070028        83.5397 
 293   0.0000       3.086521        83.9885 
 294   0.0000       3.108825        84.5954 
 295   0.0000       3.331267        90.6484 
 296   0.0000       3.361696        91.4764 
 297   0.0000       3.419561        93.0510 
 298   0.0000       3.433692        93.4355 
 299   0.0000       3.603998        98.0698 
 300   0.0000       9.180774       249.8216 
 301   0.0000       9.369252       254.9503 
 302   0.0000       9.397618       255.7222 
 303   0.0000       9.419280       256.3117 
 304   0.0000       9.426833       256.5172 
 305   0.0000       9.558965       260.1127 
 306   0.0000       9.616300       261.6728 
 307   0.0000       9.683951       263.5137 
 308   0.0000       9.754814       265.4420 
 309   0.0000       9.778788       266.0943 
 310   0.0000      19.050562       518.3922 
 311   0.0000      19.138759       520.7921 
 312   0.0000      19.172991       521.7236 
 313   0.0000      19.210377       522.7409 
 314   0.0000      19.248881       523.7887 
 315   0.0000      19.259089       524.0665 
 316   0.0000      19.290492       524.9210 
 317   0.0000      19.331722       526.0429 
 318   0.0000      19.430255       528.7241 
 319   0.0000      19.436475       528.8934 

                    ********************************
                    * MULLIKEN POPULATION ANALYSIS *
                    ********************************

-----------------------
MULLIKEN ATOMIC CHARGES
-----------------------
   0 B :    0.529942
   1 N :   -0.515125
   2 B :    0.516010
   3 N :   -0.661398
   4 B :    0.259530
   5 N :   -0.511917
   6 B :    0.519180
   7 N :   -0.506753
   8 B :    0.260145
   9 N :   -0.661659
  10 N :   -0.321325
  11 N :   -0.310458
  12 B :    0.530974
  13 N :   -0.667255
  14 B :    0.246764
  15 B :    0.352504
  16 B :   -0.014726
  17 N :   -0.615244
  18 B :    0.231240
  19 N :   -0.655982
  20 H :    0.040129
  21 H :    0.363560
  22 H :    0.032364
  23 H :    0.358981
  24 H :    0.360297
  25 H :    0.041049
  26 H :    0.039218
  27 H :    0.360226
  28 H :    0.360138
  29 H :    0.039591
Sum of atomic charges:    0.0000000

--------------------------------
MULLIKEN REDUCED ORBITAL CHARGES
--------------------------------
  0 B s       :     2.596340  s :     2.596340
      pz      :     0.480245  p :     1.791682
      px      :     0.663304
      py      :     0.648133
      dz2     :     0.007502  d :     0.082036
      dxz     :     0.012234
      dyz     :     0.011187
      dx2y2   :     0.025498
      dxy     :     0.025615
  1 N s       :     3.473963  s :     3.473963
      pz      :     1.495078  p :     4.026846
      px      :     1.288612
      py      :     1.243156
      dz2     :     0.002535  d :     0.014316
      dxz     :     0.001678
      dyz     :     0.002979
      dx2y2   :     0.002210
      dxy     :     0.004913
  2 B s       :     2.591546  s :     2.591546
      pz      :     0.492921  p :     1.812259
      px      :     0.658667
      py      :     0.660671
      dz2     :     0.008876  d :     0.080185
      dxz     :     0.015096
      dyz     :     0.010509
      dx2y2   :     0.025524
      dxy     :     0.020179
  3 N s       :     3.535130  s :     3.535130
      pz      :     1.567715  p :     4.111210
      px      :     1.273532
      py      :     1.269963
      dz2     :     0.001543  d :     0.015059
      dxz     :     0.000997
      dyz     :     0.003497
      dx2y2   :     0.007034
      dxy     :     0.001988
  4 B s       :     2.807294  s :     2.807294
      pz      :     0.416815  p :     1.874366
      px      :     0.792801
      py      :     0.664750
      dz2     :     0.005556  d :     0.058810
      dxz     :     0.006179
      dyz     :     0.009520
      dx2y2   :     0.018365
      dxy     :     0.019189
  5 N s       :     3.494145  s :     3.494145
      pz      :     1.475750  p :     4.005147
      px      :     1.296704
      py      :     1.232693
      dz2     :     0.001396  d :     0.012625
      dxz     :     0.001577
      dyz     :     0.001631
      dx2y2   :     0.004455
      dxy     :     0.003566
  6 B s       :     2.600524  s :     2.600524
      pz      :     0.478890  p :     1.798644
      px      :     0.667085
      py      :     0.652669
      dz2     :     0.007447  d :     0.081652
      dxz     :     0.012265
      dyz     :     0.010734
      dx2y2   :     0.025903
      dxy     :     0.025302
  7 N s       :     3.494448  s :     3.494448
      pz      :     1.471735  p :     3.999611
      px      :     1.295708
      py      :     1.232167
      dz2     :     0.001384  d :     0.012694
      dxz     :     0.001624
      dyz     :     0.001589
      dx2y2   :     0.004476
      dxy     :     0.003621
  8 B s       :     2.807867  s :     2.807867
      pz      :     0.412648  p :     1.873229
      px      :     0.789756
      py      :     0.670825
      dz2     :     0.005569  d :     0.058759
      dxz     :     0.006192
      dyz     :     0.009325
      dx2y2   :     0.018452
      dxy     :     0.019221
  9 N s       :     3.535416  s :     3.535416
      pz      :     1.568785  p :     4.111180
      px      :     1.272675
      py      :     1.269720
      dz2     :     0.001561  d :     0.015063
      dxz     :     0.000973
      dyz     :     0.003464
      dx2y2   :     0.007148
      dxy     :     0.001916
 10 N s       :     3.477097  s :     3.477097
      pz      :     1.558548  p :     3.807265
      px      :     0.970036
      py      :     1.278681
      dz2     :     0.004304  d :     0.036963
      dxz     :     0.009151
      dyz     :     0.002259
      dx2y2   :     0.012406
      dxy     :     0.008843
 11 N s       :     3.486770  s :     3.486770
      pz      :     1.534433  p :     3.785250
      px      :     0.969852
      py      :     1.280965
      dz2     :     0.004211  d :     0.038438
      dxz     :     0.009050
      dyz     :     0.002005
      dx2y2   :     0.014690
      dxy     :     0.008481
 12 B s       :     2.593852  s :     2.593852
      pz      :     0.502474  p :     1.796963
      px      :     0.629492
      py      :     0.664997
      dz2     :     0.009037  d :     0.078211
      dxz     :     0.012755
      dyz     :     0.011942
      dx2y2   :     0.019614
      dxy     :     0.024863
 13 N s       :     3.535933  s :     3.535933
      pz      :     1.588809  p :     4.116248
      px      :     1.268249
      py      :     1.259191
      dz2     :     0.001975  d :     0.015073
      dxz     :     0.001748
      dyz     :     0.001921
      dx2y2   :     0.001867
      dxy     :     0.007562
 14 B s       :     2.805114  s :     2.805114
      pz      :     0.418479  p :     1.888719
      px      :     0.838854
      py      :     0.631386
      dz2     :     0.005628  d :     0.059403
      dxz     :     0.004751
      dyz     :     0.010923
      dx2y2   :     0.018531
      dxy     :     0.019571
 15 B s       :     2.787921  s :     2.787921
      pz      :     0.444981  p :     1.804204
      px      :     0.624830
      py      :     0.734393
      dz2     :     0.006533  d :     0.055371
      dxz     :     0.010193
      dyz     :     0.006576
      dx2y2   :     0.012817
      dxy     :     0.019252
 16 B s       :     2.955341  s :     2.955341
      pz      :     0.357058  p :     2.022587
      px      :     0.707838
      py      :     0.957691
      dz2     :     0.003958  d :     0.036797
      dxz     :     0.006608
      dyz     :     0.001769
      dx2y2   :     0.015167
      dxy     :     0.009295
 17 N s       :     3.536569  s :     3.536569
      pz      :     1.532581  p :     4.061821
      px      :     1.259699
      py      :     1.269541
      dz2     :     0.001744  d :     0.016855
      dxz     :     0.001678
      dyz     :     0.001996
      dx2y2   :     0.001790
      dxy     :     0.009647
 18 B s       :     2.809579  s :     2.809579
      pz      :     0.420820  p :     1.900124
      px      :     0.839039
      py      :     0.640265
      dz2     :     0.005593  d :     0.059058
      dxz     :     0.004712
      dyz     :     0.010636
      dx2y2   :     0.018440
      dxy     :     0.019677
 19 N s       :     3.542222  s :     3.542222
      pz      :     1.563100  p :     4.097869
      px      :     1.278181
      py      :     1.256588
      dz2     :     0.001879  d :     0.015891
      dxz     :     0.001938
      dyz     :     0.001878
      dx2y2   :     0.001904
      dxy     :     0.008292
 20 H s       :     0.959871  s :     0.959871
 21 H s       :     0.636440  s :     0.636440
 22 H s       :     0.967636  s :     0.967636
 23 H s       :     0.641019  s :     0.641019
 24 H s       :     0.639703  s :     0.639703
 25 H s       :     0.958951  s :     0.958951
 26 H s       :     0.960782  s :     0.960782
 27 H s       :     0.639774  s :     0.639774
 28 H s       :     0.639862  s :     0.639862
 29 H s       :     0.960409  s :     0.960409


                     *******************************
                     * LOEWDIN POPULATION ANALYSIS *
                     *******************************

----------------------
LOEWDIN ATOMIC CHARGES
----------------------
   0 B :    0.117043
   1 N :   -0.163133
   2 B :    0.119851
   3 N :   -0.295180
   4 B :    0.074939
   5 N :   -0.187533
   6 B :    0.117773
   7 N :   -0.184476
   8 B :    0.076056
   9 N :   -0.294866
  10 N :   -0.056472
  11 N :   -0.035044
  12 B :    0.093177
  13 N :   -0.294055
  14 B :    0.062385
  15 B :   -0.002450
  16 B :   -0.050145
  17 N :   -0.251367
  18 B :    0.056811
  19 N :   -0.272891
  20 H :    0.004263
  21 H :    0.271415
  22 H :    0.005273
  23 H :    0.265084
  24 H :    0.269711
  25 H :    0.005121
  26 H :    0.005038
  27 H :    0.269278
  28 H :    0.269191
  29 H :    0.005204

-------------------------------
LOEWDIN REDUCED ORBITAL CHARGES
-------------------------------
  0 B s       :     2.585605  s :     2.585605
      pz      :     0.532210  p :     2.116298
      px      :     0.799417
      py      :     0.784671
      dz2     :     0.016181  d :     0.181054
      dxz     :     0.025901
      dyz     :     0.023389
      dx2y2   :     0.056938
      dxy     :     0.058645
  1 N s       :     3.079217  s :     3.079217
      pz      :     1.435331  p :     4.039189
      px      :     1.311428
      py      :     1.292429
      dz2     :     0.004102  d :     0.044727
      dxz     :     0.004241
      dyz     :     0.006273
      dx2y2   :     0.012301
      dxy     :     0.017810
  2 B s       :     2.607189  s :     2.607189
      pz      :     0.563341  p :     2.097420
      px      :     0.809229
      py      :     0.724850
      dz2     :     0.018912  d :     0.175541
      dxz     :     0.032279
      dyz     :     0.022908
      dx2y2   :     0.057127
      dxy     :     0.044315
  3 N s       :     3.140872  s :     3.140872
      pz      :     1.516437  p :     4.116196
      px      :     1.332680
      py      :     1.267078
      dz2     :     0.002257  d :     0.038112
      dxz     :     0.002985
      dyz     :     0.005665
      dx2y2   :     0.017798
      dxy     :     0.009408
  4 B s       :     2.713707  s :     2.713707
      pz      :     0.465345  p :     2.090877
      px      :     0.858294
      py      :     0.767237
      dz2     :     0.010861  d :     0.120477
      dxz     :     0.011622
      dyz     :     0.019364
      dx2y2   :     0.038069
      dxy     :     0.040561
  5 N s       :     3.095078  s :     3.095078
      pz      :     1.415130  p :     4.052683
      px      :     1.341303
      py      :     1.296250
      dz2     :     0.002828  d :     0.039772
      dxz     :     0.004012
      dyz     :     0.004444
      dx2y2   :     0.014792
      dxy     :     0.013696
  6 B s       :     2.587197  s :     2.587197
      pz      :     0.530178  p :     2.114658
      px      :     0.801534
      py      :     0.782946
      dz2     :     0.016161  d :     0.180372
      dxz     :     0.025918
      dyz     :     0.022302
      dx2y2   :     0.058015
      dxy     :     0.057976
  7 N s       :     3.095766  s :     3.095766
      pz      :     1.410769  p :     4.048816
      px      :     1.341098
      py      :     1.296950
      dz2     :     0.002814  d :     0.039894
      dxz     :     0.004089
      dyz     :     0.004332
      dx2y2   :     0.014946
      dxy     :     0.013714
  8 B s       :     2.714130  s :     2.714130
      pz      :     0.461345  p :     2.089505
      px      :     0.858055
      py      :     0.770106
      dz2     :     0.010866  d :     0.120309
      dxz     :     0.011713
      dyz     :     0.018903
      dx2y2   :     0.038132
      dxy     :     0.040695
  9 N s       :     3.141065  s :     3.141065
      pz      :     1.517022  p :     4.115689
      px      :     1.332336
      py      :     1.266331
      dz2     :     0.002267  d :     0.038112
      dxz     :     0.002941
      dyz     :     0.005591
      dx2y2   :     0.018019
      dxy     :     0.009295
 10 N s       :     3.065471  s :     3.065471
      pz      :     1.506951  p :     3.901210
      px      :     1.074445
      py      :     1.319815
      dz2     :     0.007561  d :     0.089791
      dxz     :     0.020170
      dyz     :     0.005003
      dx2y2   :     0.033351
      dxy     :     0.023706
 11 N s       :     3.068724  s :     3.068724
      pz      :     1.477683  p :     3.873328
      px      :     1.071379
      py      :     1.324265
      dz2     :     0.007409  d :     0.092992
      dxz     :     0.020085
      dyz     :     0.004658
      dx2y2   :     0.038007
      dxy     :     0.022833
 12 B s       :     2.615858  s :     2.615858
      pz      :     0.572134  p :     2.119101
      px      :     0.780396
      py      :     0.766571
      dz2     :     0.019253  d :     0.171863
      dxz     :     0.027336
      dyz     :     0.025951
      dx2y2   :     0.044175
      dxy     :     0.055148
 13 N s       :     3.139115  s :     3.139115
      pz      :     1.533872  p :     4.116832
      px      :     1.295204
      py      :     1.287756
      dz2     :     0.002656  d :     0.038108
      dxz     :     0.003549
      dyz     :     0.003747
      dx2y2   :     0.009388
      dxy     :     0.018768
 14 B s       :     2.713116  s :     2.713116
      pz      :     0.467878  p :     2.102215
      px      :     0.862242
      py      :     0.772096
      dz2     :     0.010949  d :     0.122283
      dxz     :     0.008264
      dyz     :     0.022899
      dx2y2   :     0.039894
      dxy     :     0.040277
 15 B s       :     2.707020  s :     2.707020
      pz      :     0.517999  p :     2.174110
      px      :     0.774317
      py      :     0.881794
      dz2     :     0.013372  d :     0.121319
      dxz     :     0.022782
      dyz     :     0.013231
      dx2y2   :     0.029379
      dxy     :     0.042556
 16 B s       :     2.799726  s :     2.799726
      pz      :     0.386290  p :     2.175628
      px      :     0.839251
      py      :     0.950087
      dz2     :     0.007439  d :     0.074792
      dxz     :     0.013118
      dyz     :     0.002900
      dx2y2   :     0.030617
      dxy     :     0.020718
 17 N s       :     3.139869  s :     3.139869
      pz      :     1.474756  p :     4.069696
      px      :     1.310360
      py      :     1.284581
      dz2     :     0.002457  d :     0.041801
      dxz     :     0.003570
      dyz     :     0.003711
      dx2y2   :     0.009252
      dxy     :     0.022810
 18 B s       :     2.715350  s :     2.715350
      pz      :     0.469277  p :     2.106316
      px      :     0.860465
      py      :     0.776574
      dz2     :     0.010874  d :     0.121523
      dxz     :     0.008213
      dyz     :     0.022208
      dx2y2   :     0.039559
      dxy     :     0.040669
 19 N s       :     3.140620  s :     3.140620
      pz      :     1.506350  p :     4.092635
      px      :     1.299851
      py      :     1.286434
      dz2     :     0.002529  d :     0.039637
      dxz     :     0.003807
      dyz     :     0.003669
      dx2y2   :     0.009495
      dxy     :     0.020137
 20 H s       :     0.995737  s :     0.995737
 21 H s       :     0.728585  s :     0.728585
 22 H s       :     0.994727  s :     0.994727
 23 H s       :     0.734916  s :     0.734916
 24 H s       :     0.730289  s :     0.730289
 25 H s       :     0.994879  s :     0.994879
 26 H s       :     0.994962  s :     0.994962
 27 H s       :     0.730722  s :     0.730722
 28 H s       :     0.730809  s :     0.730809
 29 H s       :     0.994796  s :     0.994796


                      *****************************
                      * MAYER POPULATION ANALYSIS *
                      *****************************

  NA   - Mulliken gross atomic population
  ZA   - Total nuclear charge
  QA   - Mulliken gross atomic charge
  VA   - Mayer's total valence
  BVA  - Mayer's bonded valence
  FA   - Mayer's free valence

  ATOM       NA         ZA         QA         VA         BVA        FA
  0 B      4.4701     5.0000     0.5299     3.3752     3.3752    -0.0000
  1 N      7.5151     7.0000    -0.5151     3.3157     3.3157     0.0000
  2 B      4.4840     5.0000     0.5160     3.4243     3.4243     0.0000
  3 N      7.6614     7.0000    -0.6614     3.1721     3.1721     0.0000
  4 B      4.7405     5.0000     0.2595     3.3831     3.3831    -0.0000
  5 N      7.5119     7.0000    -0.5119     3.3221     3.3221     0.0000
  6 B      4.4808     5.0000     0.5192     3.3993     3.3993     0.0000
  7 N      7.5068     7.0000    -0.5068     3.3273     3.3273    -0.0000
  8 B      4.7399     5.0000     0.2601     3.3817     3.3817    -0.0000
  9 N      7.6617     7.0000    -0.6617     3.1722     3.1722     0.0000
 10 N      7.3213     7.0000    -0.3213     3.2969     3.2969     0.0000
 11 N      7.3105     7.0000    -0.3105     3.3199     3.3199     0.0000
 12 B      4.4690     5.0000     0.5310     3.3530     3.3530     0.0000
 13 N      7.6673     7.0000    -0.6673     3.1679     3.1679    -0.0000
 14 B      4.7532     5.0000     0.2468     3.3943     3.3943     0.0000
 15 B      4.6475     5.0000     0.3525     3.3637     3.3637     0.0000
 16 B      5.0147     5.0000    -0.0147     3.3339     3.3339    -0.0000
 17 N      7.6152     7.0000    -0.6152     3.2445     3.2445     0.0000
 18 B      4.7688     5.0000     0.2312     3.4144     3.4144     0.0000
 19 N      7.6560     7.0000    -0.6560     3.1998     3.1998    -0.0000
 20 H      0.9599     1.0000     0.0401     0.9794     0.9794     0.0000
 21 H      0.6364     1.0000     0.3636     0.8362     0.8362     0.0000
 22 H      0.9676     1.0000     0.0324     0.9782     0.9782    -0.0000
 23 H      0.6410     1.0000     0.3590     0.8364     0.8364     0.0000
 24 H      0.6397     1.0000     0.3603     0.8405     0.8405    -0.0000
 25 H      0.9590     1.0000     0.0410     0.9799     0.9799    -0.0000
 26 H      0.9608     1.0000     0.0392     0.9797     0.9797    -0.0000
 27 H      0.6398     1.0000     0.3602     0.8400     0.8400    -0.0000
 28 H      0.6399     1.0000     0.3601     0.8400     0.8400     0.0000
 29 H      0.9604     1.0000     0.0396     0.9797     0.9797    -0.0000

  Mayer bond orders larger than 0.100000
B(  0-B ,  1-N ) :   1.0792 B(  0-B ,  5-N ) :   1.0647 B(  0-B , 10-N ) :   1.0682 
B(  1-N ,  2-B ) :   1.0839 B(  1-N ,  6-B ) :   1.0772 B(  2-B ,  3-N ) :   1.0969 
B(  2-B ,  9-N ) :   1.1003 B(  3-N ,  4-B ) :   1.1980 B(  3-N , 27-H ) :   0.8258 
B(  4-B ,  5-N ) :   1.0987 B(  4-B , 26-H ) :   0.9662 B(  5-N , 14-B ) :   1.1047 
B(  6-B ,  7-N ) :   1.0806 B(  6-B , 11-N ) :   1.0605 B(  7-N ,  8-B ) :   1.1001 
B(  7-N , 18-B ) :   1.0954 B(  8-B ,  9-N ) :   1.1948 B(  8-B , 29-H ) :   0.9660 
B(  9-N , 28-H ) :   0.8259 B( 10-N , 11-N ) :   1.0177 B( 10-N , 12-B ) :   1.1225 
B( 11-N , 15-B ) :   1.1702 B( 12-B , 13-N ) :   1.0801 B( 12-B , 17-N ) :   1.0690 
B( 13-N , 14-B ) :   1.2080 B( 13-N , 24-H ) :   0.8268 B( 14-B , 25-H ) :   0.9641 
B( 15-B , 16-B ) :   0.9955 B( 15-B , 19-N ) :   1.1030 B( 16-B , 17-N ) :   1.3208 
B( 16-B , 22-H ) :   0.9672 B( 17-N , 23-H ) :   0.8191 B( 18-B , 19-N ) :   1.2252 
B( 18-B , 20-H ) :   0.9634 B( 19-N , 21-H ) :   0.8300 

-------
TIMINGS
-------

Total SCF time: 0 days 0 hours 4 min 53 sec 

Total time                  ....     293.011 sec
Sum of individual times     ....     286.781 sec  ( 97.9%)

Fock matrix formation       ....     265.632 sec  ( 90.7%)
  Split-RI-J                ....      19.573 sec  (  7.4% of F)
  Chain of spheres X        ....     196.861 sec  ( 74.1% of F)
  XC integration            ....      38.633 sec  ( 14.5% of F)
    Basis function eval.    ....      11.249 sec  ( 29.1% of XC)
    Density eval.           ....       8.016 sec  ( 20.7% of XC)
    XC-Functional eval.     ....       2.610 sec  (  6.8% of XC)
    XC-Potential eval.      ....       5.749 sec  ( 14.9% of XC)
Diagonalization             ....       1.134 sec  (  0.4%)
Density matrix formation    ....       0.251 sec  (  0.1%)
Population analysis         ....       0.142 sec  (  0.0%)
Initial guess               ....       0.200 sec  (  0.1%)
Orbital Transformation      ....       0.000 sec  (  0.0%)
Orbital Orthonormalization  ....       0.000 sec  (  0.0%)
DIIS solution               ....       2.250 sec  (  0.8%)
SOSCF solution              ....       1.974 sec  (  0.7%)
Grid generation             ....      15.198 sec  (  5.2%)

Maximum memory used throughout the entire SCF-calculation: 97.7 MB


-------------------------------------------------------------------------------
                          DFT DISPERSION CORRECTION                            
                                                                               
                              DFTD3 V3.1  Rev 1                                
                          USING Becke-Johnson damping                          
-------------------------------------------------------------------------------
The PBEh-3c composite method is recognized
Using three-body term ABC
Active option DFTDOPT                   ...         4   

molecular C6(AA) [au] = 12707.078321 


            DFT-D V3
 parameters
 s6 scaling factor         :     1.0000 
 a1 scaling factor         :     0.4860 
 s8 scaling factor         :     0.0000 
 a2 scaling factor         :     4.5000 
 Damping factor alpha9(ATM):    16.0000 
 ad hoc parameters k1-k3   :    16.0000     1.3333    -4.0000 

 Edisp/kcal,au: -14.399279179714  -0.022946709554 
 E6   /kcal   : -14.430857884 
 E8   /kcal   :  -0.000000000 
 E6(ABC)      :   0.031578704 
 % E8         :   0.000000000 
 % E6(ABC)    :  -0.219307532 

-------------------------   ----------------
Dispersion correction           -0.022946710
-------------------------   ----------------

------------------   -----------------
gCP correction             0.049126487
------------------   -----------------

-------------------------   --------------------
FINAL SINGLE POINT ENERGY      -801.149787173041
-------------------------   --------------------


                            ***************************************
                            *     ORCA property calculations      *
                            ***************************************

                                    ---------------------
                                    Active property flags
                                    ---------------------
   (+) Dipole Moment


------------------------------------------------------------------------------
                       ORCA ELECTRIC PROPERTIES CALCULATION
------------------------------------------------------------------------------

Dipole Moment Calculation                       ... on
Quadrupole Moment Calculation                   ... off
Polarizability Calculation                      ... off
GBWName                                         ... pbeh-3c.gbw
Electron density                                ... pbeh-3c.scfp
The origin for moment calculation is the CENTER OF MASS  = (-0.000071,  0.010085  0.020447)

-------------
DIPOLE MOMENT
-------------
                                X             Y             Z
Electronic contribution:     -0.33051      -0.22716       4.78413
Nuclear contribution   :      0.80738       0.25167      -5.52630
                        -----------------------------------------
Total Dipole Moment    :      0.47687       0.02451      -0.74218
                        -----------------------------------------
Magnitude (a.u.)       :      0.88251
Magnitude (Debye)      :      2.24317



--------------------
Rotational spectrum 
--------------------
 
Rotational constants in cm-1:     0.016157     0.015523     0.008169 
Rotational constants in MHz :   484.363557   465.367182   244.910977 

 Dipole components along the rotational axes: 
x,y,z [a.u.] :    -0.217987     0.427814    -0.740462 
x,y,z [Debye]:    -0.554079     1.087417    -1.882105 

 

Timings for individual modules:

Sum of individual times         ...      297.856 sec (=   4.964 min)
GTO integral calculation        ...        4.221 sec (=   0.070 min)   1.4 %
SCF iterations                  ...      293.635 sec (=   4.894 min)  98.6 %
                             ****ORCA TERMINATED NORMALLY****
TOTAL RUN TIME: 0 days 0 hours 5 minutes 0 seconds 208 msec
