
                                 *****************
                                 * O   R   C   A *
                                 *****************

                                            #,                                       
                                            ###                                      
                                            ####                                     
                                            #####                                    
                                            ######                                   
                                           ########,                                 
                                     ,,################,,,,,                         
                               ,,#################################,,                 
                          ,,##########################################,,             
                       ,#########################################, ''#####,          
                    ,#############################################,,   '####,        
                  ,##################################################,,,,####,       
                ,###########''''           ''''###############################       
              ,#####''   ,,,,##########,,,,          '''####'''          '####       
            ,##' ,,,,###########################,,,                        '##       
           ' ,,###''''                  '''############,,,                           
         ,,##''                                '''############,,,,        ,,,,,,###''
      ,#''                                            '''#######################'''  
     '                                                          ''''####''''         
             ,#######,   #######,   ,#######,      ##                                
            ,#'     '#,  ##    ##  ,#'     '#,    #''#        ######   ,####,        
            ##       ##  ##   ,#'  ##            #'  '#       #        #'  '#        
            ##       ##  #######   ##           ,######,      #####,   #    #        
            '#,     ,#'  ##    ##  '#,     ,#' ,#      #,         ##   #,  ,#        
             '#######'   ##     ##  '#######'  #'      '#     #####' # '####'        



                  #######################################################
                  #                        -***-                        #
                  #          Department of theory and spectroscopy      #
                  #    Directorship and core code : Frank Neese         #
                  #        Max Planck Institute fuer Kohlenforschung    #
                  #                Kaiser Wilhelm Platz 1               #
                  #                 D-45470 Muelheim/Ruhr               #
                  #                      Germany                        #
                  #                                                     #
                  #                  All rights reserved                #
                  #                        -***-                        #
                  #######################################################


                         Program Version 5.0.3 -  RELEASE  -


 With contributions from (in alphabetic order):
   Daniel Aravena         : Magnetic Suceptibility
   Michael Atanasov       : Ab Initio Ligand Field Theory (pilot matlab implementation)
   Alexander A. Auer      : GIAO ZORA, VPT2 properties, NMR spectrum
   Ute Becker             : Parallelization
   Giovanni Bistoni       : ED, misc. LED, open-shell LED, HFLD
   Martin Brehm           : Molecular dynamics
   Dmytro Bykov           : SCF Hessian
   Vijay G. Chilkuri      : MRCI spin determinant printing, contributions to CSF-ICE
   Dipayan Datta          : RHF DLPNO-CCSD density
   Achintya Kumar Dutta   : EOM-CC, STEOM-CC
   Dmitry Ganyushin       : Spin-Orbit,Spin-Spin,Magnetic field MRCI
   Miquel Garcia          : C-PCM and meta-GGA Hessian, CC/C-PCM, Gaussian charge scheme
   Yang Guo               : DLPNO-NEVPT2, F12-NEVPT2, CIM, IAO-localization
   Andreas Hansen         : Spin unrestricted coupled pair/coupled cluster methods
   Benjamin Helmich-Paris : MC-RPA, TRAH-SCF, COSX integrals
   Lee Huntington         : MR-EOM, pCC
   Robert Izsak           : Overlap fitted RIJCOSX, COSX-SCS-MP3, EOM
   Marcus Kettner         : VPT2
   Christian Kollmar      : KDIIS, OOCD, Brueckner-CCSD(T), CCSD density, CASPT2, CASPT2-K
   Simone Kossmann        : Meta GGA functionals, TD-DFT gradient, OOMP2, MP2 Hessian
   Martin Krupicka        : Initial AUTO-CI
   Lucas Lang             : DCDCAS
   Marvin Lechner         : AUTO-CI (C++ implementation), FIC-MRCC
   Dagmar Lenk            : GEPOL surface, SMD
   Dimitrios Liakos       : Extrapolation schemes; Compound Job, initial MDCI parallelization
   Dimitrios Manganas     : Further ROCIS development; embedding schemes
   Dimitrios Pantazis     : SARC Basis sets
   Anastasios Papadopoulos: AUTO-CI, single reference methods and gradients
   Taras Petrenko         : DFT Hessian,TD-DFT gradient, ASA, ECA, R-Raman, ABS, FL, XAS/XES, NRVS
   Peter Pinski           : DLPNO-MP2, DLPNO-MP2 Gradient
   Christoph Reimann      : Effective Core Potentials
   Marius Retegan         : Local ZFS, SOC
   Christoph Riplinger    : Optimizer, TS searches, QM/MM, DLPNO-CCSD(T), (RO)-DLPNO pert. Triples
   Tobias Risthaus        : Range-separated hybrids, TD-DFT gradient, RPA, STAB
   Michael Roemelt        : Original ROCIS implementation
   Masaaki Saitow         : Open-shell DLPNO-CCSD energy and density
   Barbara Sandhoefer     : DKH picture change effects
   Avijit Sen             : IP-ROCIS
   Kantharuban Sivalingam : CASSCF convergence, NEVPT2, FIC-MRCI
   Bernardo de Souza      : ESD, SOC TD-DFT
   Georgi Stoychev        : AutoAux, RI-MP2 NMR, DLPNO-MP2 response
   Willem Van den Heuvel  : Paramagnetic NMR
   Boris Wezisla          : Elementary symmetry handling
   Frank Wennmohs         : Technical directorship


 We gratefully acknowledge several colleagues who have allowed us to
 interface, adapt or use parts of their codes:
   Stefan Grimme, W. Hujo, H. Kruse, P. Pracht,  : VdW corrections, initial TS optimization,
                  C. Bannwarth, S. Ehlert          DFT functionals, gCP, sTDA/sTD-DF
   Ed Valeev, F. Pavosevic, A. Kumar             : LibInt (2-el integral package), F12 methods
   Garnet Chan, S. Sharma, J. Yang, R. Olivares  : DMRG
   Ulf Ekstrom                                   : XCFun DFT Library
   Mihaly Kallay                                 : mrcc  (arbitrary order and MRCC methods)
   Jiri Pittner, Ondrej Demel                    : Mk-CCSD
   Frank Weinhold                                : gennbo (NPA and NBO analysis)
   Christopher J. Cramer and Donald G. Truhlar   : smd solvation model
   Lars Goerigk                                  : TD-DFT with DH, B97 family of functionals
   V. Asgeirsson, H. Jonsson                     : NEB implementation
   FAccTs GmbH                                   : IRC, NEB, NEB-TS, DLPNO-Multilevel, CI-OPT
                                                   MM, QMMM, 2- and 3-layer-ONIOM, Crystal-QMMM,
                                                   LR-CPCM, SF, NACMEs, symmetry and pop. for TD-DFT,
                                                   nearIR, NL-DFT gradient (VV10), updates on ESD,
                                                   ML-optimized integration grids
   S Lehtola, MJT Oliveira, MAL Marques          : LibXC Library
   Liviu Ungur et al                             : ANISO software


 Your calculation uses the libint2 library for the computation of 2-el integrals
 For citations please refer to: http://libint.valeyev.net

 Your ORCA version has been built with support for libXC version: 5.1.0
 For citations please refer to: https://tddft.org/programs/libxc/

 This ORCA versions uses:
   CBLAS   interface :  Fast vector & matrix operations
   LAPACKE interface :  Fast linear algebra routines
   SCALAPACK package :  Parallel linear algebra routines
   Shared memory     :  Shared parallel matrices
   BLAS/LAPACK       :  OpenBLAS 0.3.15  USE64BITINT DYNAMIC_ARCH NO_AFFINITY Haswell SINGLE_THREADED
        Core in use  :  Haswell
   Copyright (c) 2011-2014, The OpenBLAS Project




***************************************
The coordinates will be read from file: 22b.xyz
***************************************


Your calculation utilizes the geometrical counterpoise correction gCP
Please cite in your paper:
H.Kruse, S. Grimme J.Chem.Phys., 136, (2012), 154101 
   

Your calculation utilizes the atom-pairwise dispersion correction
with the Becke-Johnson damping scheme (D3BJ)
Cite in your paper:
S.Grimme, S.Ehrlich, L.Goerigk, J Comput Chem, (2011), 32, 1456–1465 
S.Grimme, J.Antony, S.Ehrlich and H.Krieg, J.Chem.Phys., 132, (2010), 154104 
   

Your calculation employs the composite approach PBEh-3c.
Please cite in your paper:
S. Grimme, J. G. Brandenburg, C. Bannwarth, A. Hansen J.Chem.Phys., 143, (2015), 054107 
   

================================================================================

----- Orbital basis set information -----
Your calculation utilizes the basis: def2-mSVP

----- AuxJ basis set information -----
Your calculation utilizes the auxiliary basis: def2/J
   F. Weigend, Phys. Chem. Chem. Phys. 8, 1057 (2006).

================================================================================
                                        WARNINGS
                       Please study these warnings very carefully!
================================================================================


INFO   : the flag for use of the SHARK integral package has been found!

================================================================================
                                       INPUT FILE
================================================================================
NAME = pbeh-3c.inp
|  1> ! PBEh-3c def2/J TightSCF DefGrid3
|  2> 
|  3> %maxcore 60000
|  4> 
|  5> %pal
|  6> nprocs 4
|  7> end
|  8> 
|  9> *xyzfile 0 1 22b.xyz
| 10> 
| 11>                          ****END OF INPUT****
================================================================================

                       ****************************
                       * Single Point Calculation *
                       ****************************

---------------------------------
CARTESIAN COORDINATES (ANGSTROEM)
---------------------------------
  P      0.185983   -0.636312   -0.203578
  H     -0.041253   -1.026698    1.131205
  C     -0.385882    1.050814   -0.015178
  C      1.937219   -0.269817    0.046196
  N     -0.814712    2.116016    0.011744
  N      3.076359   -0.136116    0.115170

----------------------------
CARTESIAN COORDINATES (A.U.)
----------------------------
  NO LB      ZA    FRAG     MASS         X           Y           Z
   0 P    15.0000    0    30.974    0.351457   -1.202455   -0.384707
   1 H     1.0000    0     1.008   -0.077957   -1.940178    2.137668
   2 C     6.0000    0    12.011   -0.729211    1.985751   -0.028682
   3 C     6.0000    0    12.011    3.660813   -0.509880    0.087298
   4 N     7.0000    0    14.007   -1.539583    3.998691    0.022193
   5 N     7.0000    0    14.007    5.813476   -0.257222    0.217640

--------------------------------
INTERNAL COORDINATES (ANGSTROEM)
--------------------------------
 P      0   0   0     0.000000000000     0.00000000     0.00000000
 H      1   0   0     1.409142677581     0.00000000     0.00000000
 C      1   2   0     1.791345382136    96.30481547     0.00000000
 C      1   2   3     1.806525162791    94.67826142    96.53895940
 N      3   1   2     1.148597085051   174.32084501   228.45209031
 N      4   1   2     1.149031465921   173.19516618   117.35285397

---------------------------
INTERNAL COORDINATES (A.U.)
---------------------------
 P      0   0   0     0.000000000000     0.00000000     0.00000000
 H      1   0   0     2.662893744249     0.00000000     0.00000000
 C      1   2   0     3.385152183502    96.30481547     0.00000000
 C      1   2   3     3.413837811712    94.67826142    96.53895940
 N      3   1   2     2.170533928967   174.32084501   228.45209031
 N      4   1   2     2.171354789849   173.19516618   117.35285397

---------------------
BASIS SET INFORMATION
---------------------
There are 4 groups of distinct atoms

 Group   1 Type P   : 10s7p1d contracted to 4s3p1d pattern {5311/511/1}
 Group   2 Type H   : 4s contracted to 2s pattern {31}
 Group   3 Type C   : 8s4p1d contracted to 4s2p1d pattern {5111/31/1}
 Group   4 Type N   : 8s4p1d contracted to 4s2p1d pattern {5111/31/1}

Atom   0P    basis set group =>   1
Atom   1H    basis set group =>   2
Atom   2C    basis set group =>   3
Atom   3C    basis set group =>   3
Atom   4N    basis set group =>   4
Atom   5N    basis set group =>   4
---------------------------------
AUXILIARY/J BASIS SET INFORMATION
---------------------------------
There are 4 groups of distinct atoms

 Group   1 Type P   : 14s5p5d2f1g contracted to 8s4p3d1f1g pattern {71111111/2111/311/2/1}
 Group   2 Type H   : 5s2p1d contracted to 3s1p1d pattern {311/2/1}
 Group   3 Type C   : 12s5p4d2f1g contracted to 6s4p3d1f1g pattern {711111/2111/211/2/1}
 Group   4 Type N   : 12s5p4d2f1g contracted to 6s4p3d1f1g pattern {711111/2111/211/2/1}

Atom   0P    basis set group =>   1
Atom   1H    basis set group =>   2
Atom   2C    basis set group =>   3
Atom   3C    basis set group =>   3
Atom   4N    basis set group =>   4
Atom   5N    basis set group =>   4


           ************************************************************
           *        Program running with 4 parallel MPI-processes     *
           *              working on a common directory               *
           ************************************************************
------------------------------------------------------------------------------
                           ORCA GTO INTEGRAL CALCULATION
                           -- RI-GTO INTEGRALS CHOSEN --
------------------------------------------------------------------------------
------------------------------------------------------------------------------
                   ___                                                        
                  /   \      - P O W E R E D   B Y -                         
                 /     \                                                     
                 |  |  |   _    _      __       _____    __    __             
                 |  |  |  | |  | |    /  \     |  _  \  |  |  /  |          
                  \  \/   | |  | |   /    \    | | | |  |  | /  /          
                 / \  \   | |__| |  /  /\  \   | |_| |  |  |/  /          
                |  |  |   |  __  | /  /__\  \  |    /   |      \           
                |  |  |   | |  | | |   __   |  |    \   |  |\   \          
                \     /   | |  | | |  |  |  |  | |\  \  |  | \   \       
                 \___/    |_|  |_| |__|  |__|  |_| \__\ |__|  \__/        
                                                                              
                      - O R C A' S   B I G   F R I E N D -                    
                                      &                                       
                       - I N T E G R A L  F E E D E R -                       
                                                                              
 v1 FN, 2020, v2 2021                                                         
------------------------------------------------------------------------------


Reading SHARK input file pbeh-3c.SHARKINP.tmp ... ok
----------------------
SHARK INTEGRAL PACKAGE
----------------------

Number of atoms                             ...      6
Number of basis functions                   ...     80
Number of shells                            ...     38
Maximum angular momentum                    ...      2
Integral batch strategy                     ... SHARK/LIBINT Hybrid
RI-J (if used) integral strategy            ... SPLIT-RIJ (Revised 2003 algorithm where possible)
Printlevel                                  ...      1
Contraction scheme used                     ... SEGMENTED contraction
Coulomb Range Separation                    ... NOT USED
Exchange Range Separation                   ... NOT USED
Finite Nucleus Model                        ... NOT USED
Auxiliary Coulomb fitting basis             ... AVAILABLE
   # of basis functions in Aux-J            ...    258
   # of shells in Aux-J                     ...     82
   Maximum angular momentum in Aux-J        ...      4
Auxiliary J/K fitting basis                 ... NOT available
Auxiliary Correlation fitting basis         ... NOT available
Auxiliary 'external' fitting basis          ... NOT available
Integral threshold                          ...     2.500000e-11
Primitive cut-off                           ...     2.500000e-12
Primitive pair pre-selection threshold      ...     2.500000e-12

Calculating pre-screening integrals         ... done (  0.0 sec) Dimension = 38
Organizing shell pair data                  ... done (  0.1 sec)
Shell pair information
Total number of shell pairs                 ...       741
Shell pairs after pre-screening             ...       673
Total number of primitive shell pairs       ...      2853
Primitive shell pairs kept                  ...      1971
          la=0 lb=0:    211 shell pairs
          la=1 lb=0:    228 shell pairs
          la=1 lb=1:     66 shell pairs
          la=2 lb=0:     98 shell pairs
          la=2 lb=1:     55 shell pairs
          la=2 lb=2:     15 shell pairs

Calculating one electron integrals          ... done (  0.0 sec)
Calculating RI/J V-Matrix + Cholesky decomp.... done (  0.2 sec)
Calculating Nuclear repulsion               ... done (  0.0 sec) ENN=    164.922510735114 Eh

SHARK setup successfully completed in   1.1 seconds

Maximum memory used throughout the entire GTOINT-calculation: 9.4 MB


           ************************************************************
           *        Program running with 4 parallel MPI-processes     *
           *              working on a common directory               *
           ************************************************************
-------------------------------------------------------------------------------
                                 ORCA SCF
-------------------------------------------------------------------------------

------------
SCF SETTINGS
------------
Hamiltonian:
 Density Functional     Method          .... DFT(GTOs)
 Exchange Functional    Exchange        .... PBE
   PBE kappa parameter   XKappa         ....  1.024500
   PBE mue parameter    XMuePBE         ....  0.123457
 Correlation Functional Correlation     .... PBE
   PBE beta parameter  CBetaPBE         ....  0.030000
 LDA part of GGA corr.  LDAOpt          .... PW91-LDA
 Gradients option       PostSCFGGA      .... off
 Hybrid DFT is turned on
   Fraction HF Exchange ScalHFX         ....  0.420000
   Scaling of DF-GGA-X  ScalDFX         ....  0.580000
   Scaling of DF-GGA-C  ScalDFC         ....  1.000000
   Scaling of DF-LDA-C  ScalLDAC        ....  1.000000
   Perturbative correction              ....  0.000000
   Density functional embedding theory  .... OFF
 RI-approximation to the Coulomb term is turned on
   Number of AuxJ basis functions       .... 258
   RIJ-ON(X) (HFX calculated with O(N)) .... on
   Number of AuxJ basis functions       .... 258
   RIJ-COSX (HFX calculated with COS-X)).... on


General Settings:
 Integral files         IntName         .... pbeh-3c
 Hartree-Fock type      HFTyp           .... RHF
 Total Charge           Charge          ....    0
 Multiplicity           Mult            ....    1
 Number of Electrons    NEL             ....   42
 Basis Dimension        Dim             ....   80
 Nuclear Repulsion      ENuc            ....    164.9225107351 Eh

Convergence Acceleration:
 DIIS                   CNVDIIS         .... on
   Start iteration      DIISMaxIt       ....    12
   Startup error        DIISStart       ....  0.200000
   # of expansion vecs  DIISMaxEq       ....     5
   Bias factor          DIISBfac        ....   1.050
   Max. coefficient     DIISMaxC        ....  10.000
 Trust-Rad. Augm. Hess. CNVTRAH         .... auto
   Auto Start mean grad. ratio tolernc. ....  1.125000
   Auto Start start iteration           ....    20
   Auto Start num. interpolation iter.  ....    10
   Max. Number of Micro iterations      ....    16
   Max. Number of Macro iterations      .... Maxiter - #DIIS iter
   Number of Davidson start vectors     ....     2
   Converg. threshold I  (grad. norm)   ....   1.000e-05
   Converg. threshold II (energy diff.) ....   1.000e-08
   Grad. Scal. Fac. for Micro threshold ....   0.100
   Minimum threshold for Micro iter.    ....   0.010
   NR start threshold (gradient norm)   ....   0.001
   Initial trust radius                 ....   0.400
   Minimum AH scaling param. (alpha)    ....   1.000
   Maximum AH scaling param. (alpha)    .... 1000.000
   Orbital update algorithm             .... Taylor
   White noise on init. David. guess    .... on
   Maximum white noise                  ....   0.010
   Quad. conv. algorithm                .... NR
   COSX micro iterations for RIJONX calc.... off
 SOSCF                  CNVSOSCF        .... on
   Start iteration      SOSCFMaxIt      ....   150
   Startup grad/error   SOSCFStart      ....  0.003300
 Level Shifting         CNVShift        .... on
   Level shift para.    LevelShift      ....    0.2500
   Turn off err/grad.   ShiftErr        ....    0.0010
 Zerner damping         CNVZerner       .... off
 Static damping         CNVDamp         .... on
   Fraction old density DampFac         ....    0.7000
   Max. Damping (<1)    DampMax         ....    0.9800
   Min. Damping (>=0)   DampMin         ....    0.0000
   Turn off err/grad.   DampErr         ....    0.1000
 Fernandez-Rico         CNVRico         .... off

SCF Procedure:
 Maximum # iterations   MaxIter         ....   125
 SCF integral mode      SCFMode         .... Direct
   Integral package                     .... SHARK and LIBINT hybrid scheme
 Reset frequency        DirectResetFreq ....    20
 Integral Threshold     Thresh          ....  2.500e-11 Eh
 Primitive CutOff       TCut            ....  2.500e-12 Eh

Convergence Tolerance:
 Convergence Check Mode ConvCheckMode   .... Total+1el-Energy
 Convergence forced     ConvForced      .... 0
 Energy Change          TolE            ....  1.000e-08 Eh
 1-El. energy change                    ....  1.000e-05 Eh
 Orbital Gradient       TolG            ....  1.000e-05
 Orbital Rotation angle TolX            ....  1.000e-05
 DIIS Error             TolErr          ....  5.000e-07


Diagonalization of the overlap matrix:
Smallest eigenvalue                        ... 4.902e-03
Time for diagonalization                   ...    0.002 sec
Threshold for overlap eigenvalues          ... 1.000e-08
Number of eigenvalues below threshold      ... 0
Time for construction of square roots      ...    0.123 sec
Total time needed                          ...    0.125 sec

--------------------------------
INITIAL GUESS: MINIMAL BASIS EHT
--------------------------------
The minimal basis has 30 functions
EHT matrix was diagonalized
Basis set overlap was calculated now projecting the orbitals
Using GuessMode=FMatrix for the initial guess
C*T matrix was formed
Effective Fockian was calculated
Effective Fockian was diagonalized
Initial density was built
                      ------------------
                      INITIAL GUESS DONE
                      ------------------
-------------------
DFT GRID GENERATION
-------------------

General Integration Accuracy     IntAcc      ... 4.959
Radial Grid Type                 RadialGrid  ... OptM3 with GC (2021)
Angular Grid (max. ang.)         AngularGrid ... 6 (Lebedev-590)
Angular grid pruning method      GridPruning ... 4 (adaptive)
Weight generation scheme         WeightScheme... Becke
Basis function cutoff            BFCut       ... 1.0000e-11
Integration weight cutoff        WCut        ... 1.0000e-14
Angular grids for H and He will be reduced by one unit
Partially contracted basis set               ... off
Rotationally invariant grid construction     ... off

Total number of grid points                  ...    83174
Total number of batches                      ...     1302
Average number of points per batch           ...       63
Average number of grid points per atom       ...    13862
Time for grid setup =    1.899 sec

--------------------
COSX GRID GENERATION
--------------------

GRIDX 1
-------
General Integration Accuracy     IntAcc      ... 4.020
Radial Grid Type                 RadialGrid  ... OptM3 with GC (2021)
Angular Grid (max. ang.)         AngularGrid ... 2 (Lebedev-110)
Angular grid pruning method      GridPruning ... 4 (adaptive)
Weight generation scheme         WeightScheme... Becke
Basis function cutoff            BFCut       ... 1.0000e-11
Integration weight cutoff        WCut        ... 1.0000e-14
Angular grids for H and He will be reduced by one unit
Partially contracted basis set               ... on
Rotationally invariant grid construction     ... off

Total number of grid points                  ...    10203
Total number of batches                      ...      163
Average number of points per batch           ...       62
Average number of grid points per atom       ...     1700
UseSFitting                                  ... on

GRIDX 2
-------
General Integration Accuracy     IntAcc      ... 4.338
Radial Grid Type                 RadialGrid  ... OptM3 with GC (2021)
Angular Grid (max. ang.)         AngularGrid ... 3 (Lebedev-194)
Angular grid pruning method      GridPruning ... 4 (adaptive)
Weight generation scheme         WeightScheme... Becke
Basis function cutoff            BFCut       ... 1.0000e-11
Integration weight cutoff        WCut        ... 1.0000e-14
Angular grids for H and He will be reduced by one unit
Partially contracted basis set               ... on
Rotationally invariant grid construction     ... off

Total number of grid points                  ...    23267
Total number of batches                      ...      367
Average number of points per batch           ...       63
Average number of grid points per atom       ...     3878
UseSFitting                                  ... on

GRIDX 3
-------
General Integration Accuracy     IntAcc      ... 4.871
Radial Grid Type                 RadialGrid  ... OptM3 with GC (2021)
Angular Grid (max. ang.)         AngularGrid ... 4 (Lebedev-302)
Angular grid pruning method      GridPruning ... 4 (adaptive)
Weight generation scheme         WeightScheme... Becke
Basis function cutoff            BFCut       ... 1.0000e-11
Integration weight cutoff        WCut        ... 1.0000e-14
Angular grids for H and He will be reduced by one unit
Partially contracted basis set               ... on
Rotationally invariant grid construction     ... off

Total number of grid points                  ...    41824
Total number of batches                      ...      656
Average number of points per batch           ...       63
Average number of grid points per atom       ...     6971
UseSFitting                                  ... on

Time for X-Grid setup             =    1.665 sec

--------------
SCF ITERATIONS
--------------
ITER       Energy         Delta-E        Max-DP      RMS-DP      [F,P]     Damp
               ***  Starting incremental Fock matrix formation  ***
  0   -525.0317461867   0.000000000000 0.41387198  0.01659950  0.6111614 0.7000
  1   -525.7360391138  -0.704292927122 0.13787087  0.00708738  0.3623462 0.7000
  2   -526.0259219884  -0.289882874643 0.06317528  0.00390922  0.2531019 0.7000
                               ***Turning on DIIS***
  3   -526.2426298624  -0.216707873976 0.05993531  0.00315579  0.1763295 0.7000
  4   -526.4032698002  -0.160639937815 0.05002586  0.00239493  0.1236174 0.7000
  5   -526.5155976168  -0.112327816553 0.12854836  0.00617754  0.0865186 0.0000
  6   -526.7829210597  -0.267323442961 0.00681098  0.00055962  0.0056276 0.0000
  7   -526.7832823312  -0.000361271515 0.00653309  0.00023378  0.0051117 0.0000
                      *** Initiating the SOSCF procedure ***
                           *** Shutting down DIIS ***
                      *** Re-Reading the Fockian *** 
                      *** Removing any level shift *** 
ITER      Energy       Delta-E        Grad      Rot      Max-DP    RMS-DP
  8   -526.78340185  -0.0001195226  0.001408  0.001408  0.004907  0.000161
               *** Restarting incremental Fock matrix formation ***
  9   -526.78343369  -0.0000318345  0.000578  0.001344  0.001429  0.000086
 10   -526.78343934  -0.0000056541  0.000226  0.000848  0.001636  0.000045
 11   -526.78343945  -0.0000001032  0.000255  0.000285  0.000280  0.000016
 12   -526.78344003  -0.0000005851  0.000077  0.000164  0.000460  0.000012
 13   -526.78344010  -0.0000000698  0.000041  0.000104  0.000201  0.000006
 14   -526.78344014  -0.0000000387  0.000004  0.000006  0.000009  0.000000
                  ***Gradient check signals convergence***
              ***Rediagonalizing the Fockian in SOSCF/NRSCF***

               *****************************************************
               *                     SUCCESS                       *
               *           SCF CONVERGED AFTER  15 CYCLES          *
               *****************************************************

Old exchange energy                            =    -19.492269455 Eh
New exchange energy                            =    -19.492267627 Eh
Exchange energy change after final integration =      0.000001828 Eh
Total energy after final integration           =   -526.783438312 Eh
Final COS-X integration done in                =     0.967 sec

----------------
TOTAL SCF ENERGY
----------------

Total Energy       :         -526.78343831 Eh          -14334.50611 eV

Components:
Nuclear Repulsion  :          164.92251074 Eh            4487.76967 eV
Electronic Energy  :         -691.70594905 Eh          -18822.27578 eV
One Electron Energy:        -1048.95908909 Eh          -28543.62794 eV
Two Electron Energy:          357.25314004 Eh            9721.35216 eV
Max COSX asymmetry :            0.00000183 Eh               0.00005 eV

Virial components:
Potential Energy   :        -1051.69466442 Eh          -28618.06673 eV
Kinetic Energy     :          524.91122611 Eh           14283.56062 eV
Virial Ratio       :            2.00356672


DFT components:
N(Alpha)           :       21.000000202523 electrons
N(Beta)            :       21.000000202523 electrons
N(Total)           :       42.000000405047 electrons
E(X)               :      -25.983119982117 Eh       
E(C)               :       -1.929956053003 Eh       
E(XC)              :      -27.913076035120 Eh       
DFET-embed. en.    :        0.000000000000 Eh       

---------------
SCF CONVERGENCE
---------------

  Last Energy change         ...   -1.4179e-09  Tolerance :   1.0000e-08
  Last MAX-Density change    ...    2.6645e-15  Tolerance :   1.0000e-07
  Last RMS-Density change    ...    7.5730e-17  Tolerance :   5.0000e-09
  Last Orbital Gradient      ...    1.0316e-06  Tolerance :   1.0000e-05
  Last Orbital Rotation      ...    1.6470e-06  Tolerance :   1.0000e-05

             **** THE GBW FILE WAS UPDATED (pbeh-3c.gbw) ****
             **** DENSITY pbeh-3c.scfp WAS UPDATED ****
             **** ENERGY FILE WAS UPDATED (pbeh-3c.en.tmp) ****
             **** THE GBW FILE WAS UPDATED (pbeh-3c.gbw) ****
             **** DENSITY pbeh-3c.scfp WAS UPDATED ****
----------------
ORBITAL ENERGIES
----------------

  NO   OCC          E(Eh)            E(eV) 
   0   2.0000     -77.849470     -2118.3918 
   1   2.0000     -14.685874      -399.6229 
   2   2.0000     -14.684087      -399.5743 
   3   2.0000     -10.520989      -286.2907 
   4   2.0000     -10.520322      -286.2725 
   5   2.0000      -6.922775      -188.3783 
   6   2.0000      -5.013635      -136.4279 
   7   2.0000      -5.012894      -136.4078 
   8   2.0000      -5.010904      -136.3536 
   9   2.0000      -1.047594       -28.5065 
  10   2.0000      -1.042377       -28.3645 
  11   2.0000      -0.850785       -23.1510 
  12   2.0000      -0.629132       -17.1195 
  13   2.0000      -0.567335       -15.4380 
  14   2.0000      -0.481268       -13.0960 
  15   2.0000      -0.462240       -12.5782 
  16   2.0000      -0.459193       -12.4953 
  17   2.0000      -0.434532       -11.8242 
  18   2.0000      -0.431379       -11.7384 
  19   2.0000      -0.419616       -11.4183 
  20   2.0000      -0.372077       -10.1247 
  21   0.0000      -0.037503        -1.0205 
  22   0.0000      -0.028917        -0.7869 
  23   0.0000       0.007405         0.2015 
  24   0.0000       0.028916         0.7868 
  25   0.0000       0.072929         1.9845 
  26   0.0000       0.084635         2.3030 
  27   0.0000       0.138150         3.7593 
  28   0.0000       0.245120         6.6700 
  29   0.0000       0.264004         7.1839 
  30   0.0000       0.382220        10.4007 
  31   0.0000       0.469917        12.7871 
  32   0.0000       0.483174        13.1478 
  33   0.0000       0.492487        13.4013 
  34   0.0000       0.502921        13.6852 
  35   0.0000       0.568981        15.4827 
  36   0.0000       0.602193        16.3865 
  37   0.0000       0.615824        16.7574 
  38   0.0000       0.621617        16.9150 
  39   0.0000       0.638920        17.3859 
  40   0.0000       0.666139        18.1266 
  41   0.0000       0.697152        18.9705 
  42   0.0000       0.699575        19.0364 
  43   0.0000       0.740732        20.1563 
  44   0.0000       0.759711        20.6728 
  45   0.0000       0.879897        23.9432 
  46   0.0000       0.898095        24.4384 
  47   0.0000       0.903745        24.5922 
  48   0.0000       0.923693        25.1350 
  49   0.0000       0.925277        25.1781 
  50   0.0000       1.014609        27.6089 
  51   0.0000       1.100953        29.9585 
  52   0.0000       1.204458        32.7750 
  53   0.0000       1.217677        33.1347 
  54   0.0000       1.536179        41.8015 
  55   0.0000       1.538464        41.8637 
  56   0.0000       1.551565        42.2202 
  57   0.0000       1.554150        42.2906 
  58   0.0000       1.606655        43.7193 
  59   0.0000       1.616973        44.0001 
  60   0.0000       1.638063        44.5740 
  61   0.0000       1.679378        45.6982 
  62   0.0000       1.684328        45.8329 
  63   0.0000       1.707774        46.4709 
  64   0.0000       1.997910        54.3659 
  65   0.0000       2.001918        54.4750 
  66   0.0000       2.011081        54.7243 
  67   0.0000       2.012163        54.7537 
  68   0.0000       2.603863        70.8547 
  69   0.0000       2.616895        71.2093 
  70   0.0000       2.632801        71.6422 
  71   0.0000       2.655865        72.2698 
  72   0.0000       2.673589        72.7521 
  73   0.0000       2.694205        73.3130 
  74   0.0000       3.021543        82.2204 
  75   0.0000       3.069060        83.5134 
  76   0.0000      13.735609       373.7649 
  77   0.0000      13.743335       373.9752 
  78   0.0000      19.379055       527.3309 
  79   0.0000      19.424683       528.5725 

                    ********************************
                    * MULLIKEN POPULATION ANALYSIS *
                    ********************************

-----------------------
MULLIKEN ATOMIC CHARGES
-----------------------
   0 P :    0.380549
   1 H :    0.161280
   2 C :   -0.140087
   3 C :   -0.139563
   4 N :   -0.129458
   5 N :   -0.132721
Sum of atomic charges:    0.0000000

--------------------------------
MULLIKEN REDUCED ORBITAL CHARGES
--------------------------------
  0 P s       :     5.576478  s :     5.576478
      pz      :     3.299206  p :     8.853440
      px      :     2.702832
      py      :     2.851402
      dz2     :     0.058302  d :     0.189533
      dxz     :     0.017583
      dyz     :     0.020897
      dx2y2   :     0.058182
      dxy     :     0.034569
  1 H s       :     0.838720  s :     0.838720
  2 C s       :     3.200548  s :     3.200548
      pz      :     0.955271  p :     2.900536
      px      :     0.971378
      py      :     0.973886
      dz2     :     0.003413  d :     0.039003
      dxz     :     0.001859
      dyz     :     0.012031
      dx2y2   :     0.011419
      dxy     :     0.010281
  3 C s       :     3.202584  s :     3.202584
      pz      :     0.954839  p :     2.897876
      px      :     0.979239
      py      :     0.963798
      dz2     :     0.003421  d :     0.039103
      dxz     :     0.013602
      dyz     :     0.000317
      dx2y2   :     0.009833
      dxy     :     0.011930
  4 N s       :     3.667549  s :     3.667549
      pz      :     1.032438  p :     3.417526
      px      :     1.051871
      py      :     1.333217
      dz2     :     0.003202  d :     0.044383
      dxz     :     0.002175
      dyz     :     0.013578
      dx2y2   :     0.012556
      dxy     :     0.012872
  5 N s       :     3.667512  s :     3.667512
      pz      :     1.035016  p :     3.420934
      px      :     1.380711
      py      :     1.005207
      dz2     :     0.003284  d :     0.044275
      dxz     :     0.015407
      dyz     :     0.000279
      dx2y2   :     0.009879
      dxy     :     0.015426


                     *******************************
                     * LOEWDIN POPULATION ANALYSIS *
                     *******************************

----------------------
LOEWDIN ATOMIC CHARGES
----------------------
   0 P :    0.350126
   1 H :    0.084292
   2 C :   -0.187561
   3 C :   -0.186539
   4 N :   -0.028628
   5 N :   -0.031691

-------------------------------
LOEWDIN REDUCED ORBITAL CHARGES
-------------------------------
  0 P s       :     5.374719  s :     5.374719
      pz      :     3.230227  p :     9.025641
      px      :     2.821134
      py      :     2.974280
      dz2     :     0.070150  d :     0.249514
      dxz     :     0.022348
      dyz     :     0.026414
      dx2y2   :     0.083517
      dxy     :     0.047085
  1 H s       :     0.915708  s :     0.915708
  2 C s       :     3.001417  s :     3.001417
      pz      :     0.947692  p :     3.102227
      px      :     0.982056
      py      :     1.172478
      dz2     :     0.008599  d :     0.083917
      dxz     :     0.003458
      dyz     :     0.023762
      dx2y2   :     0.025570
      dxy     :     0.022527
  3 C s       :     3.005824  s :     3.005824
      pz      :     0.947493  p :     3.097173
      px      :     1.194033
      py      :     0.955647
      dz2     :     0.008546  d :     0.083542
      dxz     :     0.026432
      dyz     :     0.000729
      dx2y2   :     0.024708
      dxy     :     0.023127
  4 N s       :     3.405253  s :     3.405253
      pz      :     1.041461  p :     3.548553
      px      :     1.075388
      py      :     1.431704
      dz2     :     0.007186  d :     0.074822
      dxz     :     0.003172
      dyz     :     0.019687
      dx2y2   :     0.022280
      dxy     :     0.022497
  5 N s       :     3.405616  s :     3.405616
      pz      :     1.044174  p :     3.551424
      px      :     1.490595
      py      :     1.016654
      dz2     :     0.007261  d :     0.074651
      dxz     :     0.022453
      dyz     :     0.000402
      dx2y2   :     0.021553
      dxy     :     0.022982


                      *****************************
                      * MAYER POPULATION ANALYSIS *
                      *****************************

  NA   - Mulliken gross atomic population
  ZA   - Total nuclear charge
  QA   - Mulliken gross atomic charge
  VA   - Mayer's total valence
  BVA  - Mayer's bonded valence
  FA   - Mayer's free valence

  ATOM       NA         ZA         QA         VA         BVA        FA
  0 P     14.6195    15.0000     0.3805     2.9129     2.9129     0.0000
  1 H      0.8387     1.0000     0.1613     0.9523     0.9523    -0.0000
  2 C      6.1401     6.0000    -0.1401     4.0022     4.0022     0.0000
  3 C      6.1396     6.0000    -0.1396     4.0007     4.0007     0.0000
  4 N      7.1295     7.0000    -0.1295     3.1629     3.1629    -0.0000
  5 N      7.1327     7.0000    -0.1327     3.1634     3.1634     0.0000

  Mayer bond orders larger than 0.100000
B(  0-P ,  1-H ) :   0.9342 B(  0-P ,  2-C ) :   0.9350 B(  0-P ,  3-C ) :   0.9300 
B(  2-C ,  4-N ) :   3.0678 B(  3-C ,  5-N ) :   3.0701 

-------
TIMINGS
-------

Total SCF time: 0 days 0 hours 0 min 59 sec 

Total time                  ....      59.450 sec
Sum of individual times     ....      53.423 sec  ( 89.9%)

Fock matrix formation       ....      46.166 sec  ( 77.7%)
  Split-RI-J                ....       5.689 sec  ( 12.3% of F)
  Chain of spheres X        ....       9.293 sec  ( 20.1% of F)
  XC integration            ....      15.819 sec  ( 34.3% of F)
    Basis function eval.    ....       1.043 sec  (  6.6% of XC)
    Density eval.           ....       0.888 sec  (  5.6% of XC)
    XC-Functional eval.     ....       0.919 sec  (  5.8% of XC)
    XC-Potential eval.      ....       0.472 sec  (  3.0% of XC)
Diagonalization             ....       0.517 sec  (  0.9%)
Density matrix formation    ....       0.054 sec  (  0.1%)
Population analysis         ....       0.721 sec  (  1.2%)
Initial guess               ....       0.021 sec  (  0.0%)
Orbital Transformation      ....       0.000 sec  (  0.0%)
Orbital Orthonormalization  ....       0.000 sec  (  0.0%)
DIIS solution               ....       1.494 sec  (  2.5%)
SOSCF solution              ....       0.887 sec  (  1.5%)
Grid generation             ....       3.564 sec  (  6.0%)

Maximum memory used throughout the entire SCF-calculation: 47.0 MB


-------------------------------------------------------------------------------
                          DFT DISPERSION CORRECTION                            
                                                                               
                              DFTD3 V3.1  Rev 1                                
                          USING Becke-Johnson damping                          
-------------------------------------------------------------------------------
The PBEh-3c composite method is recognized
Using three-body term ABC
Active option DFTDOPT                   ...         4   

molecular C6(AA) [au] = 1170.638290 


            DFT-D V3
 parameters
 s6 scaling factor         :     1.0000 
 a1 scaling factor         :     0.4860 
 s8 scaling factor         :     0.0000 
 a2 scaling factor         :     4.5000 
 Damping factor alpha9(ATM):    16.0000 
 ad hoc parameters k1-k3   :    16.0000     1.3333    -4.0000 

 Edisp/kcal,au: -1.714716102368  -0.002732573754 
 E6   /kcal   :  -1.715638870 
 E8   /kcal   :  -0.000000000 
 E6(ABC)      :   0.000922768 
 % E8         :   0.000000000 
 % E6(ABC)    :  -0.053814608 

-------------------------   ----------------
Dispersion correction           -0.002732574
-------------------------   ----------------

------------------   -----------------
gCP correction             0.003484881
------------------   -----------------

-------------------------   --------------------
FINAL SINGLE POINT ENERGY      -526.782686005258
-------------------------   --------------------


                            ***************************************
                            *     ORCA property calculations      *
                            ***************************************

                                    ---------------------
                                    Active property flags
                                    ---------------------
   (+) Dipole Moment


------------------------------------------------------------------------------
                       ORCA ELECTRIC PROPERTIES CALCULATION
------------------------------------------------------------------------------

Dipole Moment Calculation                       ... on
Quadrupole Moment Calculation                   ... off
Polarizability Calculation                      ... off
GBWName                                         ... pbeh-3c.gbw
Electron density                                ... pbeh-3c.scfp
The origin for moment calculation is the CENTER OF MASS  = ( 1.260246,  0.368170 -0.067816)

-------------
DIPOLE MOMENT
-------------
                                X             Y             Z
Electronic contribution:     -0.50875      -0.82624      -1.10946
Nuclear contribution   :     -0.22957      -0.39463       1.24586
                        -----------------------------------------
Total Dipole Moment    :     -0.73832      -1.22087       0.13640
                        -----------------------------------------
Magnitude (a.u.)       :      1.43327
Magnitude (Debye)      :      3.64307



--------------------
Rotational spectrum 
--------------------
 
Rotational constants in cm-1:     0.290167     0.090430     0.070017 
Rotational constants in MHz :  8699.002678  2711.017356  2099.066919 

 Dipole components along the rotational axes: 
x,y,z [a.u.] :    -0.030152    -1.401430     0.298892 
x,y,z [Debye]:    -0.076639    -3.562153     0.759723 

 

Timings for individual modules:

Sum of individual times         ...       61.885 sec (=   1.031 min)
GTO integral calculation        ...        1.792 sec (=   0.030 min)   2.9 %
SCF iterations                  ...       60.094 sec (=   1.002 min)  97.1 %
                             ****ORCA TERMINATED NORMALLY****
TOTAL RUN TIME: 0 days 0 hours 1 minutes 13 seconds 420 msec
