
                                 *****************
                                 * O   R   C   A *
                                 *****************

                                            #,                                       
                                            ###                                      
                                            ####                                     
                                            #####                                    
                                            ######                                   
                                           ########,                                 
                                     ,,################,,,,,                         
                               ,,#################################,,                 
                          ,,##########################################,,             
                       ,#########################################, ''#####,          
                    ,#############################################,,   '####,        
                  ,##################################################,,,,####,       
                ,###########''''           ''''###############################       
              ,#####''   ,,,,##########,,,,          '''####'''          '####       
            ,##' ,,,,###########################,,,                        '##       
           ' ,,###''''                  '''############,,,                           
         ,,##''                                '''############,,,,        ,,,,,,###''
      ,#''                                            '''#######################'''  
     '                                                          ''''####''''         
             ,#######,   #######,   ,#######,      ##                                
            ,#'     '#,  ##    ##  ,#'     '#,    #''#        ######   ,####,        
            ##       ##  ##   ,#'  ##            #'  '#       #        #'  '#        
            ##       ##  #######   ##           ,######,      #####,   #    #        
            '#,     ,#'  ##    ##  '#,     ,#' ,#      #,         ##   #,  ,#        
             '#######'   ##     ##  '#######'  #'      '#     #####' # '####'        



                  #######################################################
                  #                        -***-                        #
                  #          Department of theory and spectroscopy      #
                  #    Directorship and core code : Frank Neese         #
                  #        Max Planck Institute fuer Kohlenforschung    #
                  #                Kaiser Wilhelm Platz 1               #
                  #                 D-45470 Muelheim/Ruhr               #
                  #                      Germany                        #
                  #                                                     #
                  #                  All rights reserved                #
                  #                        -***-                        #
                  #######################################################


                         Program Version 5.0.3 -  RELEASE  -


 With contributions from (in alphabetic order):
   Daniel Aravena         : Magnetic Suceptibility
   Michael Atanasov       : Ab Initio Ligand Field Theory (pilot matlab implementation)
   Alexander A. Auer      : GIAO ZORA, VPT2 properties, NMR spectrum
   Ute Becker             : Parallelization
   Giovanni Bistoni       : ED, misc. LED, open-shell LED, HFLD
   Martin Brehm           : Molecular dynamics
   Dmytro Bykov           : SCF Hessian
   Vijay G. Chilkuri      : MRCI spin determinant printing, contributions to CSF-ICE
   Dipayan Datta          : RHF DLPNO-CCSD density
   Achintya Kumar Dutta   : EOM-CC, STEOM-CC
   Dmitry Ganyushin       : Spin-Orbit,Spin-Spin,Magnetic field MRCI
   Miquel Garcia          : C-PCM and meta-GGA Hessian, CC/C-PCM, Gaussian charge scheme
   Yang Guo               : DLPNO-NEVPT2, F12-NEVPT2, CIM, IAO-localization
   Andreas Hansen         : Spin unrestricted coupled pair/coupled cluster methods
   Benjamin Helmich-Paris : MC-RPA, TRAH-SCF, COSX integrals
   Lee Huntington         : MR-EOM, pCC
   Robert Izsak           : Overlap fitted RIJCOSX, COSX-SCS-MP3, EOM
   Marcus Kettner         : VPT2
   Christian Kollmar      : KDIIS, OOCD, Brueckner-CCSD(T), CCSD density, CASPT2, CASPT2-K
   Simone Kossmann        : Meta GGA functionals, TD-DFT gradient, OOMP2, MP2 Hessian
   Martin Krupicka        : Initial AUTO-CI
   Lucas Lang             : DCDCAS
   Marvin Lechner         : AUTO-CI (C++ implementation), FIC-MRCC
   Dagmar Lenk            : GEPOL surface, SMD
   Dimitrios Liakos       : Extrapolation schemes; Compound Job, initial MDCI parallelization
   Dimitrios Manganas     : Further ROCIS development; embedding schemes
   Dimitrios Pantazis     : SARC Basis sets
   Anastasios Papadopoulos: AUTO-CI, single reference methods and gradients
   Taras Petrenko         : DFT Hessian,TD-DFT gradient, ASA, ECA, R-Raman, ABS, FL, XAS/XES, NRVS
   Peter Pinski           : DLPNO-MP2, DLPNO-MP2 Gradient
   Christoph Reimann      : Effective Core Potentials
   Marius Retegan         : Local ZFS, SOC
   Christoph Riplinger    : Optimizer, TS searches, QM/MM, DLPNO-CCSD(T), (RO)-DLPNO pert. Triples
   Tobias Risthaus        : Range-separated hybrids, TD-DFT gradient, RPA, STAB
   Michael Roemelt        : Original ROCIS implementation
   Masaaki Saitow         : Open-shell DLPNO-CCSD energy and density
   Barbara Sandhoefer     : DKH picture change effects
   Avijit Sen             : IP-ROCIS
   Kantharuban Sivalingam : CASSCF convergence, NEVPT2, FIC-MRCI
   Bernardo de Souza      : ESD, SOC TD-DFT
   Georgi Stoychev        : AutoAux, RI-MP2 NMR, DLPNO-MP2 response
   Willem Van den Heuvel  : Paramagnetic NMR
   Boris Wezisla          : Elementary symmetry handling
   Frank Wennmohs         : Technical directorship


 We gratefully acknowledge several colleagues who have allowed us to
 interface, adapt or use parts of their codes:
   Stefan Grimme, W. Hujo, H. Kruse, P. Pracht,  : VdW corrections, initial TS optimization,
                  C. Bannwarth, S. Ehlert          DFT functionals, gCP, sTDA/sTD-DF
   Ed Valeev, F. Pavosevic, A. Kumar             : LibInt (2-el integral package), F12 methods
   Garnet Chan, S. Sharma, J. Yang, R. Olivares  : DMRG
   Ulf Ekstrom                                   : XCFun DFT Library
   Mihaly Kallay                                 : mrcc  (arbitrary order and MRCC methods)
   Jiri Pittner, Ondrej Demel                    : Mk-CCSD
   Frank Weinhold                                : gennbo (NPA and NBO analysis)
   Christopher J. Cramer and Donald G. Truhlar   : smd solvation model
   Lars Goerigk                                  : TD-DFT with DH, B97 family of functionals
   V. Asgeirsson, H. Jonsson                     : NEB implementation
   FAccTs GmbH                                   : IRC, NEB, NEB-TS, DLPNO-Multilevel, CI-OPT
                                                   MM, QMMM, 2- and 3-layer-ONIOM, Crystal-QMMM,
                                                   LR-CPCM, SF, NACMEs, symmetry and pop. for TD-DFT,
                                                   nearIR, NL-DFT gradient (VV10), updates on ESD,
                                                   ML-optimized integration grids
   S Lehtola, MJT Oliveira, MAL Marques          : LibXC Library
   Liviu Ungur et al                             : ANISO software


 Your calculation uses the libint2 library for the computation of 2-el integrals
 For citations please refer to: http://libint.valeyev.net

 Your ORCA version has been built with support for libXC version: 5.1.0
 For citations please refer to: https://tddft.org/programs/libxc/

 This ORCA versions uses:
   CBLAS   interface :  Fast vector & matrix operations
   LAPACKE interface :  Fast linear algebra routines
   SCALAPACK package :  Parallel linear algebra routines
   Shared memory     :  Shared parallel matrices
   BLAS/LAPACK       :  OpenBLAS 0.3.15  USE64BITINT DYNAMIC_ARCH NO_AFFINITY Haswell SINGLE_THREADED
        Core in use  :  Haswell
   Copyright (c) 2011-2014, The OpenBLAS Project




***************************************
The coordinates will be read from file: Tp.xyz
***************************************


Your calculation utilizes the geometrical counterpoise correction gCP
Please cite in your paper:
H.Kruse, S. Grimme J.Chem.Phys., 136, (2012), 154101 
   

Your calculation utilizes the atom-pairwise dispersion correction
with the Becke-Johnson damping scheme (D3BJ)
Cite in your paper:
S.Grimme, S.Ehrlich, L.Goerigk, J Comput Chem, (2011), 32, 1456–1465 
S.Grimme, J.Antony, S.Ehrlich and H.Krieg, J.Chem.Phys., 132, (2010), 154104 
   

Your calculation employs the composite approach PBEh-3c.
Please cite in your paper:
S. Grimme, J. G. Brandenburg, C. Bannwarth, A. Hansen J.Chem.Phys., 143, (2015), 054107 
   

================================================================================

----- Orbital basis set information -----
Your calculation utilizes the basis: def2-mSVP

----- AuxJ basis set information -----
Your calculation utilizes the auxiliary basis: def2/J
   F. Weigend, Phys. Chem. Chem. Phys. 8, 1057 (2006).

================================================================================
                                        WARNINGS
                       Please study these warnings very carefully!
================================================================================


INFO   : the flag for use of the SHARK integral package has been found!

================================================================================
                                       INPUT FILE
================================================================================
NAME = pbeh-3c.inp
|  1> ! PBEh-3c def2/J TightSCF DefGrid3
|  2> 
|  3> %maxcore 60000
|  4> 
|  5> %pal
|  6> nprocs 4
|  7> end
|  8> 
|  9> *xyzfile 1 1 Tp.xyz
| 10> 
| 11>                          ****END OF INPUT****
================================================================================

                       ****************************
                       * Single Point Calculation *
                       ****************************

---------------------------------
CARTESIAN COORDINATES (ANGSTROEM)
---------------------------------
  N     -0.505121    1.849892    0.000000
  N      1.487469    0.709619    0.000000
  C     -0.547999   -0.523456    0.000000
  C      0.857521   -0.469547    0.000000
  C     -1.174119    0.684466    0.000000
  C      0.859854    1.949981    0.000000
  C     -1.272589   -1.831531    0.000000
  O      1.518461   -1.577533    0.000000
  O      1.471714    2.983735    0.000000
  H     -1.026720    2.718735    0.000000
  H      2.504441    0.741712    0.000000
  H     -2.252707    0.767581    0.000000
  H     -1.027775   -2.424107   -0.882045
  H     -1.027775   -2.424107    0.882045
  H     -2.348099   -1.663934    0.000000
  H      2.483445   -1.491509    0.000000

----------------------------
CARTESIAN COORDINATES (A.U.)
----------------------------
  NO LB      ZA    FRAG     MASS         X           Y           Z
   0 N     7.0000    0    14.007   -0.954540    3.495790    0.000000
   1 N     7.0000    0    14.007    2.810908    1.340986    0.000000
   2 C     6.0000    0    12.011   -1.035567   -0.989188    0.000000
   3 C     6.0000    0    12.011    1.620480   -0.887316    0.000000
   4 C     6.0000    0    12.011   -2.218763    1.293453    0.000000
   5 C     6.0000    0    12.011    1.624889    3.684930    0.000000
   6 C     6.0000    0    12.011   -2.404845   -3.461092    0.000000
   7 O     8.0000    0    15.999    2.869475   -2.981105    0.000000
   8 O     8.0000    0    15.999    2.781136    5.638442    0.000000
   9 H     1.0000    0     1.008   -1.940220    5.137665    0.000000
  10 H     1.0000    0     1.008    4.732707    1.401633    0.000000
  11 H     1.0000    0     1.008   -4.256999    1.450519    0.000000
  12 H     1.0000    0     1.008   -1.942214   -4.580897   -1.666824
  13 H     1.0000    0     1.008   -1.942214   -4.580897    1.666824
  14 H     1.0000    0     1.008   -4.437264   -3.144380    0.000000
  15 H     1.0000    0     1.008    4.693032   -2.818544    0.000000

--------------------------------
INTERNAL COORDINATES (ANGSTROEM)
--------------------------------
 N      0   0   0     0.000000000000     0.00000000     0.00000000
 N      1   0   0     2.295786327396     0.00000000     0.00000000
 C      1   2   0     2.373735693394    61.25436824     0.00000000
 C      2   1   3     1.336887232093    91.66813590     0.00000000
 C      1   2   3     1.343792128798    90.07678196     0.00000000
 C      1   2   3     1.368639759581    33.97443997   180.00000000
 C      3   1   2     1.495356863684   152.05134265   180.00000085
 O      4   2   1     1.290144695011   121.07041810   180.00000000
 O      6   1   2     1.201257381196   124.81428773   180.00000000
 H      1   2   3     1.013387434661   150.75863931   180.00000000
 H      2   1   3     1.017478366190   148.41183395   180.00000000
 H      5   1   2     1.081785382103   115.45095100   180.00000000
 H      7   3   1     1.090451151766   111.50458330   119.61079576
 H      7   3   1     1.090451151766   111.50458330   240.38920424
 H      7   3   1     1.088489438358   110.12648277     0.00000000
 H      8   4   2     0.968811436664   115.72287680     0.00000000

---------------------------
INTERNAL COORDINATES (A.U.)
---------------------------
 N      0   0   0     0.000000000000     0.00000000     0.00000000
 N      1   0   0     4.338407420779     0.00000000     0.00000000
 C      1   2   0     4.485710374828    61.25436824     0.00000000
 C      2   1   3     2.526350740591    91.66813590     0.00000000
 C      1   2   3     2.539399104348    90.07678196     0.00000000
 C      1   2   3     2.586354321604    33.97443997   180.00000000
 C      3   1   2     2.825814944842   152.05134265   180.00000085
 O      4   2   1     2.438020146702   121.07041810   180.00000000
 O      6   1   2     2.270047466811   124.81428773   180.00000000
 H      1   2   3     1.915024719067   150.75863931   180.00000000
 H      2   1   3     1.922755459289   148.41183395   180.00000000
 H      5   1   2     2.044278107854   115.45095100   180.00000000
 H      7   3   1     2.060654039257   111.50458330   119.61079576
 H      7   3   1     2.060654039257   111.50458330   240.38920424
 H      7   3   1     2.056946938162   110.12648277     0.00000000
 H      8   4   2     1.830788290705   115.72287680     0.00000000

---------------------
BASIS SET INFORMATION
---------------------
There are 4 groups of distinct atoms

 Group   1 Type N   : 8s4p1d contracted to 4s2p1d pattern {5111/31/1}
 Group   2 Type C   : 8s4p1d contracted to 4s2p1d pattern {5111/31/1}
 Group   3 Type O   : 8s4p1d contracted to 4s2p1d pattern {5111/31/1}
 Group   4 Type H   : 4s contracted to 2s pattern {31}

Atom   0N    basis set group =>   1
Atom   1N    basis set group =>   1
Atom   2C    basis set group =>   2
Atom   3C    basis set group =>   2
Atom   4C    basis set group =>   2
Atom   5C    basis set group =>   2
Atom   6C    basis set group =>   2
Atom   7O    basis set group =>   3
Atom   8O    basis set group =>   3
Atom   9H    basis set group =>   4
Atom  10H    basis set group =>   4
Atom  11H    basis set group =>   4
Atom  12H    basis set group =>   4
Atom  13H    basis set group =>   4
Atom  14H    basis set group =>   4
Atom  15H    basis set group =>   4
---------------------------------
AUXILIARY/J BASIS SET INFORMATION
---------------------------------
There are 4 groups of distinct atoms

 Group   1 Type N   : 12s5p4d2f1g contracted to 6s4p3d1f1g pattern {711111/2111/211/2/1}
 Group   2 Type C   : 12s5p4d2f1g contracted to 6s4p3d1f1g pattern {711111/2111/211/2/1}
 Group   3 Type O   : 12s5p4d2f1g contracted to 6s4p3d1f1g pattern {711111/2111/211/2/1}
 Group   4 Type H   : 5s2p1d contracted to 3s1p1d pattern {311/2/1}

Atom   0N    basis set group =>   1
Atom   1N    basis set group =>   1
Atom   2C    basis set group =>   2
Atom   3C    basis set group =>   2
Atom   4C    basis set group =>   2
Atom   5C    basis set group =>   2
Atom   6C    basis set group =>   2
Atom   7O    basis set group =>   3
Atom   8O    basis set group =>   3
Atom   9H    basis set group =>   4
Atom  10H    basis set group =>   4
Atom  11H    basis set group =>   4
Atom  12H    basis set group =>   4
Atom  13H    basis set group =>   4
Atom  14H    basis set group =>   4
Atom  15H    basis set group =>   4


           ************************************************************
           *        Program running with 4 parallel MPI-processes     *
           *              working on a common directory               *
           ************************************************************
------------------------------------------------------------------------------
                           ORCA GTO INTEGRAL CALCULATION
                           -- RI-GTO INTEGRALS CHOSEN --
------------------------------------------------------------------------------
------------------------------------------------------------------------------
                   ___                                                        
                  /   \      - P O W E R E D   B Y -                         
                 /     \                                                     
                 |  |  |   _    _      __       _____    __    __             
                 |  |  |  | |  | |    /  \     |  _  \  |  |  /  |          
                  \  \/   | |  | |   /    \    | | | |  |  | /  /          
                 / \  \   | |__| |  /  /\  \   | |_| |  |  |/  /          
                |  |  |   |  __  | /  /__\  \  |    /   |      \           
                |  |  |   | |  | | |   __   |  |    \   |  |\   \          
                \     /   | |  | | |  |  |  |  | |\  \  |  | \   \       
                 \___/    |_|  |_| |__|  |__|  |_| \__\ |__|  \__/        
                                                                              
                      - O R C A' S   B I G   F R I E N D -                    
                                      &                                       
                       - I N T E G R A L  F E E D E R -                       
                                                                              
 v1 FN, 2020, v2 2021                                                         
------------------------------------------------------------------------------


Reading SHARK input file pbeh-3c.SHARKINP.tmp ... ok
----------------------
SHARK INTEGRAL PACKAGE
----------------------

Number of atoms                             ...     16
Number of basis functions                   ...    149
Number of shells                            ...     77
Maximum angular momentum                    ...      2
Integral batch strategy                     ... SHARK/LIBINT Hybrid
RI-J (if used) integral strategy            ... SPLIT-RIJ (Revised 2003 algorithm where possible)
Printlevel                                  ...      1
Contraction scheme used                     ... SEGMENTED contraction
Coulomb Range Separation                    ... NOT USED
Exchange Range Separation                   ... NOT USED
Finite Nucleus Model                        ... NOT USED
Auxiliary Coulomb fitting basis             ... AVAILABLE
   # of basis functions in Aux-J            ...    518
   # of shells in Aux-J                     ...    170
   Maximum angular momentum in Aux-J        ...      4
Auxiliary J/K fitting basis                 ... NOT available
Auxiliary Correlation fitting basis         ... NOT available
Auxiliary 'external' fitting basis          ... NOT available
Integral threshold                          ...     2.500000e-11
Primitive cut-off                           ...     2.500000e-12
Primitive pair pre-selection threshold      ...     2.500000e-12

Calculating pre-screening integrals         ... done (  0.0 sec) Dimension = 77
Organizing shell pair data                  ... done (  0.2 sec)
Shell pair information
Total number of shell pairs                 ...      3003
Shell pairs after pre-screening             ...      2676
Total number of primitive shell pairs       ...     10723
Primitive shell pairs kept                  ...      6763
          la=0 lb=0:   1048 shell pairs
          la=1 lb=0:    857 shell pairs
          la=1 lb=1:    169 shell pairs
          la=2 lb=0:    400 shell pairs
          la=2 lb=1:    158 shell pairs
          la=2 lb=2:     44 shell pairs

Calculating one electron integrals          ... done (  0.0 sec)
Calculating RI/J V-Matrix + Cholesky decomp.... done (  0.4 sec)
Calculating Nuclear repulsion               ... done (  0.0 sec) ENN=    456.615873853182 Eh

SHARK setup successfully completed in   1.6 seconds

Maximum memory used throughout the entire GTOINT-calculation: 11.3 MB


           ************************************************************
           *        Program running with 4 parallel MPI-processes     *
           *              working on a common directory               *
           ************************************************************
-------------------------------------------------------------------------------
                                 ORCA SCF
-------------------------------------------------------------------------------

------------
SCF SETTINGS
------------
Hamiltonian:
 Density Functional     Method          .... DFT(GTOs)
 Exchange Functional    Exchange        .... PBE
   PBE kappa parameter   XKappa         ....  1.024500
   PBE mue parameter    XMuePBE         ....  0.123457
 Correlation Functional Correlation     .... PBE
   PBE beta parameter  CBetaPBE         ....  0.030000
 LDA part of GGA corr.  LDAOpt          .... PW91-LDA
 Gradients option       PostSCFGGA      .... off
 Hybrid DFT is turned on
   Fraction HF Exchange ScalHFX         ....  0.420000
   Scaling of DF-GGA-X  ScalDFX         ....  0.580000
   Scaling of DF-GGA-C  ScalDFC         ....  1.000000
   Scaling of DF-LDA-C  ScalLDAC        ....  1.000000
   Perturbative correction              ....  0.000000
   Density functional embedding theory  .... OFF
 RI-approximation to the Coulomb term is turned on
   Number of AuxJ basis functions       .... 518
   RIJ-ON(X) (HFX calculated with O(N)) .... on
   Number of AuxJ basis functions       .... 518
   RIJ-COSX (HFX calculated with COS-X)).... on


General Settings:
 Integral files         IntName         .... pbeh-3c
 Hartree-Fock type      HFTyp           .... RHF
 Total Charge           Charge          ....    1
 Multiplicity           Mult            ....    1
 Number of Electrons    NEL             ....   66
 Basis Dimension        Dim             ....  149
 Nuclear Repulsion      ENuc            ....    456.6158738532 Eh

Convergence Acceleration:
 DIIS                   CNVDIIS         .... on
   Start iteration      DIISMaxIt       ....    12
   Startup error        DIISStart       ....  0.200000
   # of expansion vecs  DIISMaxEq       ....     5
   Bias factor          DIISBfac        ....   1.050
   Max. coefficient     DIISMaxC        ....  10.000
 Trust-Rad. Augm. Hess. CNVTRAH         .... auto
   Auto Start mean grad. ratio tolernc. ....  1.125000
   Auto Start start iteration           ....    20
   Auto Start num. interpolation iter.  ....    10
   Max. Number of Micro iterations      ....    16
   Max. Number of Macro iterations      .... Maxiter - #DIIS iter
   Number of Davidson start vectors     ....     2
   Converg. threshold I  (grad. norm)   ....   1.000e-05
   Converg. threshold II (energy diff.) ....   1.000e-08
   Grad. Scal. Fac. for Micro threshold ....   0.100
   Minimum threshold for Micro iter.    ....   0.010
   NR start threshold (gradient norm)   ....   0.001
   Initial trust radius                 ....   0.400
   Minimum AH scaling param. (alpha)    ....   1.000
   Maximum AH scaling param. (alpha)    .... 1000.000
   Orbital update algorithm             .... Taylor
   White noise on init. David. guess    .... on
   Maximum white noise                  ....   0.010
   Quad. conv. algorithm                .... NR
   COSX micro iterations for RIJONX calc.... off
 SOSCF                  CNVSOSCF        .... on
   Start iteration      SOSCFMaxIt      ....   150
   Startup grad/error   SOSCFStart      ....  0.003300
 Level Shifting         CNVShift        .... on
   Level shift para.    LevelShift      ....    0.2500
   Turn off err/grad.   ShiftErr        ....    0.0010
 Zerner damping         CNVZerner       .... off
 Static damping         CNVDamp         .... on
   Fraction old density DampFac         ....    0.7000
   Max. Damping (<1)    DampMax         ....    0.9800
   Min. Damping (>=0)   DampMin         ....    0.0000
   Turn off err/grad.   DampErr         ....    0.1000
 Fernandez-Rico         CNVRico         .... off

SCF Procedure:
 Maximum # iterations   MaxIter         ....   125
 SCF integral mode      SCFMode         .... Direct
   Integral package                     .... SHARK and LIBINT hybrid scheme
 Reset frequency        DirectResetFreq ....    20
 Integral Threshold     Thresh          ....  2.500e-11 Eh
 Primitive CutOff       TCut            ....  2.500e-12 Eh

Convergence Tolerance:
 Convergence Check Mode ConvCheckMode   .... Total+1el-Energy
 Convergence forced     ConvForced      .... 0
 Energy Change          TolE            ....  1.000e-08 Eh
 1-El. energy change                    ....  1.000e-05 Eh
 Orbital Gradient       TolG            ....  1.000e-05
 Orbital Rotation angle TolX            ....  1.000e-05
 DIIS Error             TolErr          ....  5.000e-07


Diagonalization of the overlap matrix:
Smallest eigenvalue                        ... 1.446e-03
Time for diagonalization                   ...    0.003 sec
Threshold for overlap eigenvalues          ... 1.000e-08
Number of eigenvalues below threshold      ... 0
Time for construction of square roots      ...    0.201 sec
Total time needed                          ...    0.372 sec

--------------------------------
INITIAL GUESS: MINIMAL BASIS EHT
--------------------------------
The minimal basis has 52 functions
EHT matrix was diagonalized
Basis set overlap was calculated now projecting the orbitals
Using GuessMode=FMatrix for the initial guess
C*T matrix was formed
Effective Fockian was calculated
Effective Fockian was diagonalized
Initial density was built
                      ------------------
                      INITIAL GUESS DONE
                      ------------------
-------------------
DFT GRID GENERATION
-------------------

General Integration Accuracy     IntAcc      ... 4.959
Radial Grid Type                 RadialGrid  ... OptM3 with GC (2021)
Angular Grid (max. ang.)         AngularGrid ... 6 (Lebedev-590)
Angular grid pruning method      GridPruning ... 4 (adaptive)
Weight generation scheme         WeightScheme... Becke
Basis function cutoff            BFCut       ... 1.0000e-11
Integration weight cutoff        WCut        ... 1.0000e-14
Angular grids for H and He will be reduced by one unit
Partially contracted basis set               ... off
Rotationally invariant grid construction     ... off

Total number of grid points                  ...   189660
Total number of batches                      ...     2972
Average number of points per batch           ...       63
Average number of grid points per atom       ...    11854
Time for grid setup =    3.517 sec

--------------------
COSX GRID GENERATION
--------------------

GRIDX 1
-------
General Integration Accuracy     IntAcc      ... 4.020
Radial Grid Type                 RadialGrid  ... OptM3 with GC (2021)
Angular Grid (max. ang.)         AngularGrid ... 2 (Lebedev-110)
Angular grid pruning method      GridPruning ... 4 (adaptive)
Weight generation scheme         WeightScheme... Becke
Basis function cutoff            BFCut       ... 1.0000e-11
Integration weight cutoff        WCut        ... 1.0000e-14
Angular grids for H and He will be reduced by one unit
Partially contracted basis set               ... on
Rotationally invariant grid construction     ... off

Total number of grid points                  ...    21543
Total number of batches                      ...      344
Average number of points per batch           ...       62
Average number of grid points per atom       ...     1346
UseSFitting                                  ... on

GRIDX 2
-------
General Integration Accuracy     IntAcc      ... 4.338
Radial Grid Type                 RadialGrid  ... OptM3 with GC (2021)
Angular Grid (max. ang.)         AngularGrid ... 3 (Lebedev-194)
Angular grid pruning method      GridPruning ... 4 (adaptive)
Weight generation scheme         WeightScheme... Becke
Basis function cutoff            BFCut       ... 1.0000e-11
Integration weight cutoff        WCut        ... 1.0000e-14
Angular grids for H and He will be reduced by one unit
Partially contracted basis set               ... on
Rotationally invariant grid construction     ... off

Total number of grid points                  ...    47432
Total number of batches                      ...      751
Average number of points per batch           ...       63
Average number of grid points per atom       ...     2964
UseSFitting                                  ... on

GRIDX 3
-------
General Integration Accuracy     IntAcc      ... 4.871
Radial Grid Type                 RadialGrid  ... OptM3 with GC (2021)
Angular Grid (max. ang.)         AngularGrid ... 4 (Lebedev-302)
Angular grid pruning method      GridPruning ... 4 (adaptive)
Weight generation scheme         WeightScheme... Becke
Basis function cutoff            BFCut       ... 1.0000e-11
Integration weight cutoff        WCut        ... 1.0000e-14
Angular grids for H and He will be reduced by one unit
Partially contracted basis set               ... on
Rotationally invariant grid construction     ... off

Total number of grid points                  ...    89364
Total number of batches                      ...     1405
Average number of points per batch           ...       63
Average number of grid points per atom       ...     5585
UseSFitting                                  ... on

Time for X-Grid setup             =    5.302 sec

--------------
SCF ITERATIONS
--------------
ITER       Energy         Delta-E        Max-DP      RMS-DP      [F,P]     Damp
               ***  Starting incremental Fock matrix formation  ***
  0   -452.0729758227   0.000000000000 0.21803129  0.00652458  0.5707717 0.7000
  1   -452.6083892757  -0.535413452920 0.12122231  0.00384875  0.3009087 0.7000
  2   -452.8744973745  -0.266108098796 0.05735759  0.00239060  0.2106739 0.7000
                               ***Turning on DIIS***
  3   -453.0649400614  -0.190442686900 0.04643464  0.00171852  0.1472758 0.7000
  4   -453.2027399581  -0.137799896767 0.03488373  0.00128193  0.1029178 0.7000
  5   -453.3000638679  -0.097323909749 0.08164747  0.00311538  0.0722255 0.0000
  6   -453.5313647363  -0.231300868391 0.00615241  0.00015366  0.0047256 0.0000
                      *** Initiating the SOSCF procedure ***
                           *** Shutting down DIIS ***
                      *** Re-Reading the Fockian *** 
                      *** Removing any level shift *** 
ITER      Energy       Delta-E        Grad      Rot      Max-DP    RMS-DP
  7   -453.53151136  -0.0001466236  0.000923  0.000923  0.002004  0.000067
               *** Restarting incremental Fock matrix formation ***
  8   -453.53155709  -0.0000457288  0.000575  0.001399  0.002273  0.000053
  9   -453.53156450  -0.0000074118  0.000529  0.000656  0.001437  0.000047
 10   -453.53156671  -0.0000022112  0.000260  0.000277  0.000696  0.000021
 11   -453.53156777  -0.0000010631  0.000011  0.000028  0.000062  0.000001
 12   -453.53156778  -0.0000000027  0.000012  0.000021  0.000028  0.000001
                  ***Gradient check signals convergence***
              ***Rediagonalizing the Fockian in SOSCF/NRSCF***

               *****************************************************
               *                     SUCCESS                       *
               *           SCF CONVERGED AFTER  13 CYCLES          *
               *****************************************************

Old exchange energy                            =    -24.316436439 Eh
New exchange energy                            =    -24.316429336 Eh
Exchange energy change after final integration =      0.000007103 Eh
Total energy after final integration           =   -453.531560677 Eh
Final COS-X integration done in                =     5.540 sec

----------------
TOTAL SCF ENERGY
----------------

Total Energy       :         -453.53156068 Eh          -12341.22118 eV

Components:
Nuclear Repulsion  :          456.61587385 Eh           12425.14961 eV
Electronic Energy  :         -910.14743453 Eh          -24766.37079 eV
One Electron Energy:        -1508.95788116 Eh          -41060.83144 eV
Two Electron Energy:          598.81044663 Eh           16294.46065 eV
Max COSX asymmetry :            0.00000090 Eh               0.00002 eV

Virial components:
Potential Energy   :         -903.96391024 Eh          -24598.10854 eV
Kinetic Energy     :          450.43234956 Eh           12256.88736 eV
Virial Ratio       :            2.00688053


DFT components:
N(Alpha)           :       32.999999517942 electrons
N(Beta)            :       32.999999517942 electrons
N(Total)           :       65.999999035884 electrons
E(X)               :      -32.371251334616 Eh       
E(C)               :       -2.943926406782 Eh       
E(XC)              :      -35.315177741398 Eh       
DFET-embed. en.    :        0.000000000000 Eh       

---------------
SCF CONVERGENCE
---------------

  Last Energy change         ...   -2.4639e-09  Tolerance :   1.0000e-08
  Last MAX-Density change    ...    1.8874e-15  Tolerance :   1.0000e-07
  Last RMS-Density change    ...    4.5157e-17  Tolerance :   5.0000e-09
  Last Orbital Gradient      ...    1.1363e-06  Tolerance :   1.0000e-05
  Last Orbital Rotation      ...    1.2582e-06  Tolerance :   1.0000e-05

             **** THE GBW FILE WAS UPDATED (pbeh-3c.gbw) ****
             **** DENSITY pbeh-3c.scfp WAS UPDATED ****
             **** ENERGY FILE WAS UPDATED (pbeh-3c.en.tmp) ****
             **** THE GBW FILE WAS UPDATED (pbeh-3c.gbw) ****
             **** DENSITY pbeh-3c.scfp WAS UPDATED ****
----------------
ORBITAL ENERGIES
----------------

  NO   OCC          E(Eh)            E(eV) 
   0   2.0000     -19.774394      -538.0886 
   1   2.0000     -19.657717      -534.9137 
   2   2.0000     -14.919430      -405.9783 
   3   2.0000     -14.902731      -405.5239 
   4   2.0000     -10.804843      -294.0147 
   5   2.0000     -10.788616      -293.5732 
   6   2.0000     -10.719765      -291.6996 
   7   2.0000     -10.659424      -290.0577 
   8   2.0000     -10.599417      -288.4248 
   9   2.0000      -1.451880       -39.5077 
  10   2.0000      -1.382335       -37.6152 
  11   2.0000      -1.293020       -35.1849 
  12   2.0000      -1.256579       -34.1932 
  13   2.0000      -1.115449       -30.3529 
  14   2.0000      -0.995442       -27.0874 
  15   2.0000      -0.985314       -26.8118 
  16   2.0000      -0.948832       -25.8190 
  17   2.0000      -0.905311       -24.6348 
  18   2.0000      -0.836087       -22.7511 
  19   2.0000      -0.825001       -22.4494 
  20   2.0000      -0.790533       -21.5115 
  21   2.0000      -0.763589       -20.7783 
  22   2.0000      -0.704190       -19.1620 
  23   2.0000      -0.698418       -19.0049 
  24   2.0000      -0.691669       -18.8213 
  25   2.0000      -0.673719       -18.3328 
  26   2.0000      -0.641977       -17.4691 
  27   2.0000      -0.636188       -17.3116 
  28   2.0000      -0.605873       -16.4866 
  29   2.0000      -0.603364       -16.4184 
  30   2.0000      -0.571577       -15.5534 
  31   2.0000      -0.528588       -14.3836 
  32   2.0000      -0.472477       -12.8568 
  33   0.0000      -0.229663        -6.2494 
  34   0.0000      -0.149958        -4.0806 
  35   0.0000      -0.093755        -2.5512 
  36   0.0000      -0.064538        -1.7562 
  37   0.0000      -0.031030        -0.8444 
  38   0.0000      -0.030328        -0.8253 
  39   0.0000       0.007615         0.2072 
  40   0.0000       0.028725         0.7816 
  41   0.0000       0.056492         1.5372 
  42   0.0000       0.060626         1.6497 
  43   0.0000       0.080175         2.1817 
  44   0.0000       0.083214         2.2644 
  45   0.0000       0.085133         2.3166 
  46   0.0000       0.131660         3.5826 
  47   0.0000       0.160079         4.3560 
  48   0.0000       0.186203         5.0668 
  49   0.0000       0.197069         5.3625 
  50   0.0000       0.230346         6.2680 
  51   0.0000       0.257175         6.9981 
  52   0.0000       0.272916         7.4264 
  53   0.0000       0.334954         9.1145 
  54   0.0000       0.342660         9.3243 
  55   0.0000       0.350764         9.5448 
  56   0.0000       0.363083         9.8800 
  57   0.0000       0.379985        10.3399 
  58   0.0000       0.386332        10.5126 
  59   0.0000       0.426464        11.6047 
  60   0.0000       0.446980        12.1629 
  61   0.0000       0.454857        12.3773 
  62   0.0000       0.491495        13.3743 
  63   0.0000       0.522055        14.2058 
  64   0.0000       0.524013        14.2591 
  65   0.0000       0.578846        15.7512 
  66   0.0000       0.621067        16.9001 
  67   0.0000       0.642793        17.4913 
  68   0.0000       0.652234        17.7482 
  69   0.0000       0.709245        19.2995 
  70   0.0000       0.733898        19.9704 
  71   0.0000       0.755059        20.5462 
  72   0.0000       0.756361        20.5816 
  73   0.0000       0.767536        20.8857 
  74   0.0000       0.813194        22.1281 
  75   0.0000       0.831372        22.6228 
  76   0.0000       0.836532        22.7632 
  77   0.0000       0.877854        23.8876 
  78   0.0000       0.890048        24.2194 
  79   0.0000       0.899201        24.4685 
  80   0.0000       0.908455        24.7203 
  81   0.0000       0.939451        25.5638 
  82   0.0000       0.973291        26.4846 
  83   0.0000       0.976282        26.5660 
  84   0.0000       1.006810        27.3967 
  85   0.0000       1.032657        28.1000 
  86   0.0000       1.041102        28.3298 
  87   0.0000       1.092940        29.7404 
  88   0.0000       1.143109        31.1056 
  89   0.0000       1.156986        31.4832 
  90   0.0000       1.222235        33.2587 
  91   0.0000       1.222290        33.2602 
  92   0.0000       1.250339        34.0235 
  93   0.0000       1.277927        34.7742 
  94   0.0000       1.298839        35.3432 
  95   0.0000       1.325821        36.0774 
  96   0.0000       1.352229        36.7960 
  97   0.0000       1.432035        38.9676 
  98   0.0000       1.478889        40.2426 
  99   0.0000       1.536960        41.8228 
 100   0.0000       1.551860        42.2283 
 101   0.0000       1.610502        43.8240 
 102   0.0000       1.670256        45.4500 
 103   0.0000       1.680771        45.7361 
 104   0.0000       1.704056        46.3697 
 105   0.0000       1.704798        46.3899 
 106   0.0000       1.734777        47.2057 
 107   0.0000       1.765179        48.0330 
 108   0.0000       1.813715        49.3537 
 109   0.0000       1.823916        49.6313 
 110   0.0000       1.876411        51.0597 
 111   0.0000       1.876518        51.0627 
 112   0.0000       1.897606        51.6365 
 113   0.0000       1.980988        53.9054 
 114   0.0000       2.034502        55.3616 
 115   0.0000       2.035886        55.3993 
 116   0.0000       2.044603        55.6365 
 117   0.0000       2.074997        56.4635 
 118   0.0000       2.126097        57.8540 
 119   0.0000       2.148149        58.4541 
 120   0.0000       2.192780        59.6686 
 121   0.0000       2.194720        59.7214 
 122   0.0000       2.211975        60.1909 
 123   0.0000       2.243519        61.0493 
 124   0.0000       2.259447        61.4827 
 125   0.0000       2.362738        64.2934 
 126   0.0000       2.413097        65.6637 
 127   0.0000       2.413389        65.6717 
 128   0.0000       2.458776        66.9067 
 129   0.0000       2.540074        69.1189 
 130   0.0000       2.551985        69.4430 
 131   0.0000       2.570061        69.9349 
 132   0.0000       2.640596        71.8543 
 133   0.0000       2.677510        72.8587 
 134   0.0000       2.711801        73.7919 
 135   0.0000       2.772222        75.4360 
 136   0.0000       2.836192        77.1767 
 137   0.0000       2.906959        79.1024 
 138   0.0000       3.105765        84.5122 
 139   0.0000       3.370356        91.7121 
 140   0.0000      13.234431       360.1272 
 141   0.0000      13.692431       372.5900 
 142   0.0000      13.794644       375.3714 
 143   0.0000      13.808432       375.7465 
 144   0.0000      14.114045       384.0627 
 145   0.0000      19.084938       519.3276 
 146   0.0000      19.195555       522.3376 
 147   0.0000      25.465812       692.9600 
 148   0.0000      25.569178       695.7727 

                    ********************************
                    * MULLIKEN POPULATION ANALYSIS *
                    ********************************

-----------------------
MULLIKEN ATOMIC CHARGES
-----------------------
   0 N :   -0.659190
   1 N :   -0.716407
   2 C :   -0.143668
   3 C :    0.687918
   4 C :    0.116468
   5 C :    0.707236
   6 C :   -0.678513
   7 O :   -0.495575
   8 O :   -0.330333
   9 H :    0.443140
  10 H :    0.432391
  11 H :    0.332102
  12 H :    0.277981
  13 H :    0.277981
  14 H :    0.262308
  15 H :    0.486160
Sum of atomic charges:    1.0000000

--------------------------------
MULLIKEN REDUCED ORBITAL CHARGES
--------------------------------
  0 N s       :     3.584889  s :     3.584889
      pz      :     1.584830  p :     4.038047
      px      :     1.193758
      py      :     1.259459
      dz2     :     0.004348  d :     0.036255
      dxz     :     0.004520
      dyz     :     0.003872
      dx2y2   :     0.011690
      dxy     :     0.011824
  1 N s       :     3.600849  s :     3.600849
      pz      :     1.608531  p :     4.081547
      px      :     1.304126
      py      :     1.168890
      dz2     :     0.004578  d :     0.034011
      dxz     :     0.001702
      dyz     :     0.006224
      dx2y2   :     0.013155
      dxy     :     0.008352
  2 C s       :     3.193626  s :     3.193626
      pz      :     1.108379  p :     2.906623
      px      :     0.814227
      py      :     0.984016
      dz2     :     0.003869  d :     0.043419
      dxz     :     0.003187
      dyz     :     0.008566
      dx2y2   :     0.017816
      dxy     :     0.009981
  3 C s       :     2.904387  s :     2.904387
      pz      :     0.762746  p :     2.296449
      px      :     0.882548
      py      :     0.651156
      dz2     :     0.006346  d :     0.111245
      dxz     :     0.015090
      dyz     :     0.023931
      dx2y2   :     0.030827
      dxy     :     0.035051
  4 C s       :     3.154091  s :     3.154091
      pz      :     0.814075  p :     2.668519
      px      :     1.023700
      py      :     0.830744
      dz2     :     0.004882  d :     0.060923
      dxz     :     0.003597
      dyz     :     0.015898
      dx2y2   :     0.018632
      dxy     :     0.017913
  5 C s       :     2.786213  s :     2.786213
      pz      :     0.808546  p :     2.359597
      px      :     0.776702
      py      :     0.774349
      dz2     :     0.006902  d :     0.146954
      dxz     :     0.017881
      dyz     :     0.024991
      dx2y2   :     0.057764
      dxy     :     0.039416
  6 C s       :     3.433624  s :     3.433624
      pz      :     1.181442  p :     3.208567
      px      :     1.088642
      py      :     0.938483
      dz2     :     0.007759  d :     0.036322
      dxz     :     0.002344
      dyz     :     0.011388
      dx2y2   :     0.008400
      dxy     :     0.006431
  7 O s       :     3.789401  s :     3.789401
      pz      :     1.762419  p :     4.673249
      px      :     1.370226
      py      :     1.540605
      dz2     :     0.005069  d :     0.032924
      dxz     :     0.000592
      dyz     :     0.007110
      dx2y2   :     0.013986
      dxy     :     0.006167
  8 O s       :     3.765674  s :     3.765674
      pz      :     1.423984  p :     4.530614
      px      :     1.654164
      py      :     1.452466
      dz2     :     0.003041  d :     0.034045
      dxz     :     0.003379
      dyz     :     0.009884
      dx2y2   :     0.008474
      dxy     :     0.009268
  9 H s       :     0.556860  s :     0.556860
 10 H s       :     0.567609  s :     0.567609
 11 H s       :     0.667898  s :     0.667898
 12 H s       :     0.722019  s :     0.722019
 13 H s       :     0.722019  s :     0.722019
 14 H s       :     0.737692  s :     0.737692
 15 H s       :     0.513840  s :     0.513840


                     *******************************
                     * LOEWDIN POPULATION ANALYSIS *
                     *******************************

----------------------
LOEWDIN ATOMIC CHARGES
----------------------
   0 N :   -0.126193
   1 N :   -0.141232
   2 C :   -0.136882
   3 C :    0.212082
   4 C :    0.061204
   5 C :    0.154940
   6 C :   -0.332397
   7 O :   -0.174803
   8 O :   -0.177887
   9 H :    0.314656
  10 H :    0.308538
  11 H :    0.181827
  12 H :    0.164763
  13 H :    0.164763
  14 H :    0.158470
  15 H :    0.368150

-------------------------------
LOEWDIN REDUCED ORBITAL CHARGES
-------------------------------
  0 N s       :     3.084078  s :     3.084078
      pz      :     1.523818  p :     3.954582
      px      :     1.206385
      py      :     1.224379
      dz2     :     0.006938  d :     0.087534
      dxz     :     0.009723
      dyz     :     0.007028
      dx2y2   :     0.032338
      dxy     :     0.031506
  1 N s       :     3.095737  s :     3.095737
      pz      :     1.541636  p :     3.963778
      px      :     1.231101
      py      :     1.191041
      dz2     :     0.007506  d :     0.081716
      dxz     :     0.002416
      dyz     :     0.012783
      dx2y2   :     0.033715
      dxy     :     0.025296
  2 C s       :     2.844296  s :     2.844296
      pz      :     1.069309  p :     3.186240
      px      :     1.028057
      py      :     1.088874
      dz2     :     0.007736  d :     0.106346
      dxz     :     0.006466
      dyz     :     0.015094
      dx2y2   :     0.046753
      dxy     :     0.030298
  3 C s       :     2.797291  s :     2.797291
      pz      :     0.783208  p :     2.743015
      px      :     1.043740
      py      :     0.916066
      dz2     :     0.015487  d :     0.247612
      dxz     :     0.029393
      dyz     :     0.048235
      dx2y2   :     0.075892
      dxy     :     0.078606
  4 C s       :     2.880144  s :     2.880144
      pz      :     0.831840  p :     2.924146
      px      :     1.084351
      py      :     1.007955
      dz2     :     0.009353  d :     0.134506
      dxz     :     0.005500
      dyz     :     0.033610
      dx2y2   :     0.044554
      dxy     :     0.041489
  5 C s       :     2.769563  s :     2.769563
      pz      :     0.827913  p :     2.747117
      px      :     0.948228
      py      :     0.970976
      dz2     :     0.017357  d :     0.328380
      dxz     :     0.035807
      dyz     :     0.049745
      dx2y2   :     0.134013
      dxy     :     0.091457
  6 C s       :     2.937917  s :     2.937917
      pz      :     1.161565  p :     3.325386
      px      :     1.116352
      py      :     1.047469
      dz2     :     0.013299  d :     0.069094
      dxz     :     0.003441
      dyz     :     0.021211
      dx2y2   :     0.016724
      dxy     :     0.014421
  7 O s       :     3.446717  s :     3.446717
      pz      :     1.739045  p :     4.668194
      px      :     1.358876
      py      :     1.570273
      dz2     :     0.007430  d :     0.059892
      dxz     :     0.002109
      dyz     :     0.009197
      dx2y2   :     0.026351
      dxy     :     0.014805
  8 O s       :     3.516535  s :     3.516535
      pz      :     1.417695  p :     4.600299
      px      :     1.665738
      py      :     1.516866
      dz2     :     0.007267  d :     0.061053
      dxz     :     0.004610
      dyz     :     0.013190
      dx2y2   :     0.015531
      dxy     :     0.020455
  9 H s       :     0.685344  s :     0.685344
 10 H s       :     0.691462  s :     0.691462
 11 H s       :     0.818173  s :     0.818173
 12 H s       :     0.835237  s :     0.835237
 13 H s       :     0.835237  s :     0.835237
 14 H s       :     0.841530  s :     0.841530
 15 H s       :     0.631850  s :     0.631850


                      *****************************
                      * MAYER POPULATION ANALYSIS *
                      *****************************

  NA   - Mulliken gross atomic population
  ZA   - Total nuclear charge
  QA   - Mulliken gross atomic charge
  VA   - Mayer's total valence
  BVA  - Mayer's bonded valence
  FA   - Mayer's free valence

  ATOM       NA         ZA         QA         VA         BVA        FA
  0 N      7.6592     7.0000    -0.6592     3.1545     3.1545    -0.0000
  1 N      7.7164     7.0000    -0.7164     3.0823     3.0823    -0.0000
  2 C      6.1437     6.0000    -0.1437     3.7603     3.7603    -0.0000
  3 C      5.3121     6.0000     0.6879     3.7367     3.7367    -0.0000
  4 C      5.8835     6.0000     0.1165     3.6107     3.6107    -0.0000
  5 C      5.2928     6.0000     0.7072     4.1082     4.1082     0.0000
  6 C      6.6785     6.0000    -0.6785     3.6512     3.6512    -0.0000
  7 O      8.4956     8.0000    -0.4956     2.1469     2.1469    -0.0000
  8 O      8.3303     8.0000    -0.3303     2.3037     2.3037    -0.0000
  9 H      0.5569     1.0000     0.4431     0.7906     0.7906    -0.0000
 10 H      0.5676     1.0000     0.4324     0.8046     0.8046    -0.0000
 11 H      0.6679     1.0000     0.3321     0.8567     0.8567    -0.0000
 12 H      0.7220     1.0000     0.2780     0.8866     0.8866    -0.0000
 13 H      0.7220     1.0000     0.2780     0.8866     0.8866     0.0000
 14 H      0.7377     1.0000     0.2623     0.8986     0.8986    -0.0000
 15 H      0.5138     1.0000     0.4862     0.7521     0.7521    -0.0000

  Mayer bond orders larger than 0.100000
B(  0-N ,  4-C ) :   1.1660 B(  0-N ,  5-C ) :   1.0300 B(  0-N ,  9-H ) :   0.7727 
B(  1-N ,  3-C ) :   1.1807 B(  1-N ,  5-C ) :   0.9605 B(  1-N , 10-H ) :   0.7744 
B(  2-C ,  3-C ) :   1.2092 B(  2-C ,  4-C ) :   1.4958 B(  2-C ,  6-C ) :   0.9578 
B(  3-C ,  7-O ) :   1.3086 B(  4-C , 11-H ) :   0.8703 B(  5-C ,  8-O ) :   2.1178 
B(  6-C , 12-H ) :   0.8970 B(  6-C , 13-H ) :   0.8970 B(  6-C , 14-H ) :   0.9088 
B(  7-O , 15-H ) :   0.7190 

-------
TIMINGS
-------

Total SCF time: 0 days 0 hours 1 min 42 sec 

Total time                  ....     102.366 sec
Sum of individual times     ....      95.019 sec  ( 92.8%)

Fock matrix formation       ....      79.286 sec  ( 77.5%)
  Split-RI-J                ....       8.680 sec  ( 10.9% of F)
  Chain of spheres X        ....      35.188 sec  ( 44.4% of F)
  XC integration            ....      20.340 sec  ( 25.7% of F)
    Basis function eval.    ....       4.060 sec  ( 20.0% of XC)
    Density eval.           ....       2.531 sec  ( 12.4% of XC)
    XC-Functional eval.     ....       1.669 sec  (  8.2% of XC)
    XC-Potential eval.      ....       1.711 sec  (  8.4% of XC)
Diagonalization             ....       1.340 sec  (  1.3%)
Density matrix formation    ....       0.258 sec  (  0.3%)
Population analysis         ....       0.861 sec  (  0.8%)
Initial guess               ....       0.026 sec  (  0.0%)
Orbital Transformation      ....       0.000 sec  (  0.0%)
Orbital Orthonormalization  ....       0.000 sec  (  0.0%)
DIIS solution               ....       2.442 sec  (  2.4%)
SOSCF solution              ....       1.986 sec  (  1.9%)
Grid generation             ....       8.820 sec  (  8.6%)

Maximum memory used throughout the entire SCF-calculation: 56.3 MB


-------------------------------------------------------------------------------
                          DFT DISPERSION CORRECTION                            
                                                                               
                              DFTD3 V3.1  Rev 1                                
                          USING Becke-Johnson damping                          
-------------------------------------------------------------------------------
The PBEh-3c composite method is recognized
Using three-body term ABC
Active option DFTDOPT                   ...         4   

molecular C6(AA) [au] = 2611.043810 


            DFT-D V3
 parameters
 s6 scaling factor         :     1.0000 
 a1 scaling factor         :     0.4860 
 s8 scaling factor         :     0.0000 
 a2 scaling factor         :     4.5000 
 Damping factor alpha9(ATM):    16.0000 
 ad hoc parameters k1-k3   :    16.0000     1.3333    -4.0000 

 Edisp/kcal,au: -5.394237385650  -0.008596263536 
 E6   /kcal   :  -5.408421305 
 E8   /kcal   :  -0.000000000 
 E6(ABC)      :   0.014183920 
 % E8         :   0.000000000 
 % E6(ABC)    :  -0.262945780 

-------------------------   ----------------
Dispersion correction           -0.008596264
-------------------------   ----------------

------------------   -----------------
gCP correction             0.031491553
------------------   -----------------

-------------------------   --------------------
FINAL SINGLE POINT ENERGY      -453.508665387015
-------------------------   --------------------


                            ***************************************
                            *     ORCA property calculations      *
                            ***************************************

                                    ---------------------
                                    Active property flags
                                    ---------------------
   (+) Dipole Moment


------------------------------------------------------------------------------
                       ORCA ELECTRIC PROPERTIES CALCULATION
------------------------------------------------------------------------------

Dipole Moment Calculation                       ... on
Quadrupole Moment Calculation                   ... off
Polarizability Calculation                      ... off
GBWName                                         ... pbeh-3c.gbw
Electron density                                ... pbeh-3c.scfp
The origin for moment calculation is the CENTER OF MASS  = ( 0.647248,  0.776862  0.000000)

-------------
DIPOLE MOMENT
-------------
                                X             Y             Z
Electronic contribution:      4.53634       5.23558      -0.00000
Nuclear contribution   :     -4.74217      -6.22377       0.00000
                        -----------------------------------------
Total Dipole Moment    :     -0.20583      -0.98819      -0.00000
                        -----------------------------------------
Magnitude (a.u.)       :      1.00940
Magnitude (Debye)      :      2.56570



--------------------
Rotational spectrum 
--------------------
 
Rotational constants in cm-1:     0.105662     0.047183     0.032817 
Rotational constants in MHz :  3167.671943  1414.516719   983.828374 

 Dipole components along the rotational axes: 
x,y,z [a.u.] :     1.005151    -0.092539    -0.000000 
x,y,z [Debye]:     2.554892    -0.235216    -0.000000 

 

Timings for individual modules:

Sum of individual times         ...      105.524 sec (=   1.759 min)
GTO integral calculation        ...        2.343 sec (=   0.039 min)   2.2 %
SCF iterations                  ...      103.181 sec (=   1.720 min)  97.8 %
                             ****ORCA TERMINATED NORMALLY****
TOTAL RUN TIME: 0 days 0 hours 1 minutes 50 seconds 408 msec
