
                                 *****************
                                 * O   R   C   A *
                                 *****************

                                            #,                                       
                                            ###                                      
                                            ####                                     
                                            #####                                    
                                            ######                                   
                                           ########,                                 
                                     ,,################,,,,,                         
                               ,,#################################,,                 
                          ,,##########################################,,             
                       ,#########################################, ''#####,          
                    ,#############################################,,   '####,        
                  ,##################################################,,,,####,       
                ,###########''''           ''''###############################       
              ,#####''   ,,,,##########,,,,          '''####'''          '####       
            ,##' ,,,,###########################,,,                        '##       
           ' ,,###''''                  '''############,,,                           
         ,,##''                                '''############,,,,        ,,,,,,###''
      ,#''                                            '''#######################'''  
     '                                                          ''''####''''         
             ,#######,   #######,   ,#######,      ##                                
            ,#'     '#,  ##    ##  ,#'     '#,    #''#        ######   ,####,        
            ##       ##  ##   ,#'  ##            #'  '#       #        #'  '#        
            ##       ##  #######   ##           ,######,      #####,   #    #        
            '#,     ,#'  ##    ##  '#,     ,#' ,#      #,         ##   #,  ,#        
             '#######'   ##     ##  '#######'  #'      '#     #####' # '####'        



                  #######################################################
                  #                        -***-                        #
                  #          Department of theory and spectroscopy      #
                  #    Directorship and core code : Frank Neese         #
                  #        Max Planck Institute fuer Kohlenforschung    #
                  #                Kaiser Wilhelm Platz 1               #
                  #                 D-45470 Muelheim/Ruhr               #
                  #                      Germany                        #
                  #                                                     #
                  #                  All rights reserved                #
                  #                        -***-                        #
                  #######################################################


                         Program Version 5.0.3 -  RELEASE  -


 With contributions from (in alphabetic order):
   Daniel Aravena         : Magnetic Suceptibility
   Michael Atanasov       : Ab Initio Ligand Field Theory (pilot matlab implementation)
   Alexander A. Auer      : GIAO ZORA, VPT2 properties, NMR spectrum
   Ute Becker             : Parallelization
   Giovanni Bistoni       : ED, misc. LED, open-shell LED, HFLD
   Martin Brehm           : Molecular dynamics
   Dmytro Bykov           : SCF Hessian
   Vijay G. Chilkuri      : MRCI spin determinant printing, contributions to CSF-ICE
   Dipayan Datta          : RHF DLPNO-CCSD density
   Achintya Kumar Dutta   : EOM-CC, STEOM-CC
   Dmitry Ganyushin       : Spin-Orbit,Spin-Spin,Magnetic field MRCI
   Miquel Garcia          : C-PCM and meta-GGA Hessian, CC/C-PCM, Gaussian charge scheme
   Yang Guo               : DLPNO-NEVPT2, F12-NEVPT2, CIM, IAO-localization
   Andreas Hansen         : Spin unrestricted coupled pair/coupled cluster methods
   Benjamin Helmich-Paris : MC-RPA, TRAH-SCF, COSX integrals
   Lee Huntington         : MR-EOM, pCC
   Robert Izsak           : Overlap fitted RIJCOSX, COSX-SCS-MP3, EOM
   Marcus Kettner         : VPT2
   Christian Kollmar      : KDIIS, OOCD, Brueckner-CCSD(T), CCSD density, CASPT2, CASPT2-K
   Simone Kossmann        : Meta GGA functionals, TD-DFT gradient, OOMP2, MP2 Hessian
   Martin Krupicka        : Initial AUTO-CI
   Lucas Lang             : DCDCAS
   Marvin Lechner         : AUTO-CI (C++ implementation), FIC-MRCC
   Dagmar Lenk            : GEPOL surface, SMD
   Dimitrios Liakos       : Extrapolation schemes; Compound Job, initial MDCI parallelization
   Dimitrios Manganas     : Further ROCIS development; embedding schemes
   Dimitrios Pantazis     : SARC Basis sets
   Anastasios Papadopoulos: AUTO-CI, single reference methods and gradients
   Taras Petrenko         : DFT Hessian,TD-DFT gradient, ASA, ECA, R-Raman, ABS, FL, XAS/XES, NRVS
   Peter Pinski           : DLPNO-MP2, DLPNO-MP2 Gradient
   Christoph Reimann      : Effective Core Potentials
   Marius Retegan         : Local ZFS, SOC
   Christoph Riplinger    : Optimizer, TS searches, QM/MM, DLPNO-CCSD(T), (RO)-DLPNO pert. Triples
   Tobias Risthaus        : Range-separated hybrids, TD-DFT gradient, RPA, STAB
   Michael Roemelt        : Original ROCIS implementation
   Masaaki Saitow         : Open-shell DLPNO-CCSD energy and density
   Barbara Sandhoefer     : DKH picture change effects
   Avijit Sen             : IP-ROCIS
   Kantharuban Sivalingam : CASSCF convergence, NEVPT2, FIC-MRCI
   Bernardo de Souza      : ESD, SOC TD-DFT
   Georgi Stoychev        : AutoAux, RI-MP2 NMR, DLPNO-MP2 response
   Willem Van den Heuvel  : Paramagnetic NMR
   Boris Wezisla          : Elementary symmetry handling
   Frank Wennmohs         : Technical directorship


 We gratefully acknowledge several colleagues who have allowed us to
 interface, adapt or use parts of their codes:
   Stefan Grimme, W. Hujo, H. Kruse, P. Pracht,  : VdW corrections, initial TS optimization,
                  C. Bannwarth, S. Ehlert          DFT functionals, gCP, sTDA/sTD-DF
   Ed Valeev, F. Pavosevic, A. Kumar             : LibInt (2-el integral package), F12 methods
   Garnet Chan, S. Sharma, J. Yang, R. Olivares  : DMRG
   Ulf Ekstrom                                   : XCFun DFT Library
   Mihaly Kallay                                 : mrcc  (arbitrary order and MRCC methods)
   Jiri Pittner, Ondrej Demel                    : Mk-CCSD
   Frank Weinhold                                : gennbo (NPA and NBO analysis)
   Christopher J. Cramer and Donald G. Truhlar   : smd solvation model
   Lars Goerigk                                  : TD-DFT with DH, B97 family of functionals
   V. Asgeirsson, H. Jonsson                     : NEB implementation
   FAccTs GmbH                                   : IRC, NEB, NEB-TS, DLPNO-Multilevel, CI-OPT
                                                   MM, QMMM, 2- and 3-layer-ONIOM, Crystal-QMMM,
                                                   LR-CPCM, SF, NACMEs, symmetry and pop. for TD-DFT,
                                                   nearIR, NL-DFT gradient (VV10), updates on ESD,
                                                   ML-optimized integration grids
   S Lehtola, MJT Oliveira, MAL Marques          : LibXC Library
   Liviu Ungur et al                             : ANISO software


 Your calculation uses the libint2 library for the computation of 2-el integrals
 For citations please refer to: http://libint.valeyev.net

 Your ORCA version has been built with support for libXC version: 5.1.0
 For citations please refer to: https://tddft.org/programs/libxc/

 This ORCA versions uses:
   CBLAS   interface :  Fast vector & matrix operations
   LAPACKE interface :  Fast linear algebra routines
   SCALAPACK package :  Parallel linear algebra routines
   Shared memory     :  Shared parallel matrices
   BLAS/LAPACK       :  OpenBLAS 0.3.15  USE64BITINT DYNAMIC_ARCH NO_AFFINITY Haswell SINGLE_THREADED
        Core in use  :  Haswell
   Copyright (c) 2011-2014, The OpenBLAS Project




***************************************
The coordinates will be read from file: 30_CF3I-benB.xyz
***************************************


Your calculation utilizes the geometrical counterpoise correction gCP
Please cite in your paper:
H.Kruse, S. Grimme J.Chem.Phys., 136, (2012), 154101 
   

Your calculation utilizes the atom-pairwise dispersion correction
with the Becke-Johnson damping scheme (D3BJ)
Cite in your paper:
S.Grimme, S.Ehrlich, L.Goerigk, J Comput Chem, (2011), 32, 1456–1465 
S.Grimme, J.Antony, S.Ehrlich and H.Krieg, J.Chem.Phys., 132, (2010), 154104 
   

Your calculation employs the composite approach PBEh-3c.
Please cite in your paper:
S. Grimme, J. G. Brandenburg, C. Bannwarth, A. Hansen J.Chem.Phys., 143, (2015), 054107 
   

================================================================================

cite the ECPs for I  [Def2-ECP] as follows:
Ce-Yb(ecp-28): M. Dolg, H. Stoll, H.Preuss, J. Chem. Phys., 1989, 90, 1730-1734.
Y-Cd(ecp-28), Hf-Hg(ecp-46): D. Andrae,U. Haeussermann, M. Dolg, H. Stoll, H. Preuss, Theor. Chim. Acta, 1990, 77, 123-141.
In-Sb(ecp-28), Tl-Bi(ecp-46): B. Metz, H. Stoll, M. Dolg, J. Chem. Phys., 2000, 113, 2563-2569.
Te-Xe(ecp-28), Po-Rn(ecp-46): K. A. Peterson, D. Figgen, E. Goll, H. Stoll, M. Dolg, J. Chem. Phys., 2003, 119, 11113-11123.
Rb(ecp-28), Cs(ecp-46): T. Leininger, A. Nicklass, W. Kuechle, H. Stoll, M. Dolg, A. Bergner, Chem. Phys. Lett., 1996, 255, 274-280.
Sr(ecp-28), Ba(ecp-46): M. Kaupp, P. V. Schleyer, H. Stoll and H. Preuss, J. Chem. Phys., 1991, 94, 1360-1366.
La(ecp-46): M. Dolg, H. Stoll, A. Savin, H. Preuss, Theor. Chim. Acta, 1989, 75, 173-194.
Lu(ecp-28): X. Cao, M. Dolg, J. Chem. Phys., 2001, 115, 7348-7355.

ECP parameters for I  [Def2-ECP] have been obtained from:
TURBOMOLE (7.0.2)

----- Orbital basis set information -----
Your calculation utilizes the basis: def2-mSVP

----- AuxJ basis set information -----
Your calculation utilizes the auxiliary basis: def2/J
   F. Weigend, Phys. Chem. Chem. Phys. 8, 1057 (2006).

================================================================================
                                        WARNINGS
                       Please study these warnings very carefully!
================================================================================


INFO   : the flag for use of the SHARK integral package has been found!

================================================================================
                                       INPUT FILE
================================================================================
NAME = pbeh-3c.inp
|  1> ! PBEh-3c def2/J TightSCF DefGrid3
|  2> 
|  3> %maxcore 60000
|  4> 
|  5> %pal
|  6> nprocs 4
|  7> end
|  8> 
|  9> *xyzfile 0 1 30_CF3I-benB.xyz
| 10> 
| 11>                          ****END OF INPUT****
================================================================================

                       ****************************
                       * Single Point Calculation *
                       ****************************

---------------------------------
CARTESIAN COORDINATES (ANGSTROEM)
---------------------------------
  I      0.003414   -3.215656    1.728463
  C      0.106167   -5.333397    1.850723
  F      0.135278   -5.877101    0.636074
  F      1.202219   -5.716997    2.501577
  F     -0.950096   -5.821924    2.496892

----------------------------
CARTESIAN COORDINATES (A.U.)
----------------------------
  NO LB      ZA    FRAG     MASS         X           Y           Z
   0 I    25.0000*   0   126.900    0.006452   -6.076709    3.266321
   1 C     6.0000    0    12.011    0.200627  -10.078660    3.497360
   2 F     9.0000    0    18.998    0.255638  -11.106111    1.202007
   3 F     9.0000    0    18.998    2.271864  -10.803558    4.727296
   4 F     9.0000    0    18.998   -1.795422  -11.001842    4.718442
* core charge reduced due to ECP

--------------------------------
INTERNAL COORDINATES (ANGSTROEM)
--------------------------------
 I      0   0   0     0.000000000000     0.00000000     0.00000000
 C      1   0   0     2.123754594697     0.00000000     0.00000000
 F      2   1   0     1.331102233686   110.84440549     0.00000000
 F      2   1   3     1.331198303206   110.81354927   120.00723286
 F      2   1   3     1.331122179264   110.82519449   239.98741114

---------------------------
INTERNAL COORDINATES (A.U.)
---------------------------
 I      0   0   0     0.000000000000     0.00000000     0.00000000
 C      1   0   0     4.013314559634     0.00000000     0.00000000
 F      2   1   0     2.515418677917   110.84440549     0.00000000
 F      2   1   3     2.515600223000   110.81354927   120.00723286
 F      2   1   3     2.515456369598   110.82519449   239.98741114

---------------------
BASIS SET INFORMATION
---------------------
There are 3 groups of distinct atoms

 Group   1 Type I   : 10s7p6d contracted to 4s4p2d pattern {6211/4111/51}
 Group   2 Type C   : 8s4p1d contracted to 4s2p1d pattern {5111/31/1}
 Group   3 Type F   : 8s4p1d contracted to 4s2p1d pattern {5111/31/1}

Atom   0I    basis set group =>   1
Atom   1C    basis set group =>   2
Atom   2F    basis set group =>   3
Atom   3F    basis set group =>   3
Atom   4F    basis set group =>   3
---------------------------------
AUXILIARY/J BASIS SET INFORMATION
---------------------------------
There are 3 groups of distinct atoms

 Group   1 Type I   : 11s5p5d3f1g contracted to 8s4p3d2f1g pattern {41111111/2111/311/21/1}
 Group   2 Type C   : 12s5p4d2f1g contracted to 6s4p3d1f1g pattern {711111/2111/211/2/1}
 Group   3 Type F   : 12s5p4d2f1g contracted to 6s4p3d1f1g pattern {711111/2111/211/2/1}

Atom   0I    basis set group =>   1
Atom   1C    basis set group =>   2
Atom   2F    basis set group =>   3
Atom   3F    basis set group =>   3
Atom   4F    basis set group =>   3
-------------------------
ECP PARAMETER INFORMATION
-------------------------

 Group 1, Type I  ECP Def2-ECP (replacing 28 core electrons, lmax=3)

Atom   0I    ECP group =>   1



           ************************************************************
           *        Program running with 4 parallel MPI-processes     *
           *              working on a common directory               *
           ************************************************************
------------------------------------------------------------------------------
                           ORCA GTO INTEGRAL CALCULATION
                           -- RI-GTO INTEGRALS CHOSEN --
------------------------------------------------------------------------------
------------------------------------------------------------------------------
                   ___                                                        
                  /   \      - P O W E R E D   B Y -                         
                 /     \                                                     
                 |  |  |   _    _      __       _____    __    __             
                 |  |  |  | |  | |    /  \     |  _  \  |  |  /  |          
                  \  \/   | |  | |   /    \    | | | |  |  | /  /          
                 / \  \   | |__| |  /  /\  \   | |_| |  |  |/  /          
                |  |  |   |  __  | /  /__\  \  |    /   |      \           
                |  |  |   | |  | | |   __   |  |    \   |  |\   \          
                \     /   | |  | | |  |  |  |  | |\  \  |  | \   \       
                 \___/    |_|  |_| |__|  |__|  |_| \__\ |__|  \__/        
                                                                              
                      - O R C A' S   B I G   F R I E N D -                    
                                      &                                       
                       - I N T E G R A L  F E E D E R -                       
                                                                              
 v1 FN, 2020, v2 2021                                                         
------------------------------------------------------------------------------


Reading SHARK input file pbeh-3c.SHARKINP.tmp ... ok
----------------------
SHARK INTEGRAL PACKAGE
----------------------

Number of atoms                             ...      5
Number of basis functions                   ...     86
Number of shells                            ...     38
Maximum angular momentum                    ...      2
Integral batch strategy                     ... SHARK/LIBINT Hybrid
RI-J (if used) integral strategy            ... SPLIT-RIJ (Revised 2003 algorithm where possible)
Printlevel                                  ...      1
Contraction scheme used                     ... SEGMENTED contraction
Coulomb Range Separation                    ... NOT USED
Exchange Range Separation                   ... NOT USED
Finite Nucleus Model                        ... NOT USED
Auxiliary Coulomb fitting basis             ... AVAILABLE
   # of basis functions in Aux-J            ...    254
   # of shells in Aux-J                     ...     78
   Maximum angular momentum in Aux-J        ...      4
Auxiliary J/K fitting basis                 ... NOT available
Auxiliary Correlation fitting basis         ... NOT available
Auxiliary 'external' fitting basis          ... NOT available
Integral threshold                          ...     2.500000e-11
Primitive cut-off                           ...     2.500000e-12
Primitive pair pre-selection threshold      ...     2.500000e-12

Calculating pre-screening integrals         ... done (  0.1 sec) Dimension = 38
Organizing shell pair data                  ... done (  1.0 sec)
Shell pair information
Total number of shell pairs                 ...       741
Shell pairs after pre-screening             ...       701
Total number of primitive shell pairs       ...      2934
Primitive shell pairs kept                  ...      2088
          la=0 lb=0:    180 shell pairs
          la=1 lb=0:    230 shell pairs
          la=1 lb=1:     78 shell pairs
          la=2 lb=0:    120 shell pairs
          la=2 lb=1:     72 shell pairs
          la=2 lb=2:     21 shell pairs

Calculating one electron integrals          ... done (  0.1 sec)
Calculating ECP integrals                   ... done (  0.2 sec)
Calculating RI/J V-Matrix + Cholesky decomp.... done (  0.5 sec)
Calculating Nuclear repulsion               ... done (  0.0 sec) ENN=    285.487980749730 Eh

SHARK setup successfully completed in   2.4 seconds

Maximum memory used throughout the entire GTOINT-calculation: 10.3 MB


           ************************************************************
           *        Program running with 4 parallel MPI-processes     *
           *              working on a common directory               *
           ************************************************************
-------------------------------------------------------------------------------
                                 ORCA SCF
-------------------------------------------------------------------------------

------------
SCF SETTINGS
------------
Hamiltonian:
 Density Functional     Method          .... DFT(GTOs)
 Exchange Functional    Exchange        .... PBE
   PBE kappa parameter   XKappa         ....  1.024500
   PBE mue parameter    XMuePBE         ....  0.123457
 Correlation Functional Correlation     .... PBE
   PBE beta parameter  CBetaPBE         ....  0.030000
 LDA part of GGA corr.  LDAOpt          .... PW91-LDA
 Gradients option       PostSCFGGA      .... off
 Hybrid DFT is turned on
   Fraction HF Exchange ScalHFX         ....  0.420000
   Scaling of DF-GGA-X  ScalDFX         ....  0.580000
   Scaling of DF-GGA-C  ScalDFC         ....  1.000000
   Scaling of DF-LDA-C  ScalLDAC        ....  1.000000
   Perturbative correction              ....  0.000000
   Density functional embedding theory  .... OFF
 RI-approximation to the Coulomb term is turned on
   Number of AuxJ basis functions       .... 254
   RIJ-ON(X) (HFX calculated with O(N)) .... on
   Number of AuxJ basis functions       .... 254
   RIJ-COSX (HFX calculated with COS-X)).... on


General Settings:
 Integral files         IntName         .... pbeh-3c
 Hartree-Fock type      HFTyp           .... RHF
 Total Charge           Charge          ....    0
 Multiplicity           Mult            ....    1
 Number of Electrons    NEL             ....   58
 Basis Dimension        Dim             ....   86
 Nuclear Repulsion      ENuc            ....    285.4879807497 Eh

Convergence Acceleration:
 DIIS                   CNVDIIS         .... on
   Start iteration      DIISMaxIt       ....    12
   Startup error        DIISStart       ....  0.200000
   # of expansion vecs  DIISMaxEq       ....     5
   Bias factor          DIISBfac        ....   1.050
   Max. coefficient     DIISMaxC        ....  10.000
 Trust-Rad. Augm. Hess. CNVTRAH         .... auto
   Auto Start mean grad. ratio tolernc. ....  1.125000
   Auto Start start iteration           ....    20
   Auto Start num. interpolation iter.  ....    10
   Max. Number of Micro iterations      ....    16
   Max. Number of Macro iterations      .... Maxiter - #DIIS iter
   Number of Davidson start vectors     ....     2
   Converg. threshold I  (grad. norm)   ....   1.000e-05
   Converg. threshold II (energy diff.) ....   1.000e-08
   Grad. Scal. Fac. for Micro threshold ....   0.100
   Minimum threshold for Micro iter.    ....   0.010
   NR start threshold (gradient norm)   ....   0.001
   Initial trust radius                 ....   0.400
   Minimum AH scaling param. (alpha)    ....   1.000
   Maximum AH scaling param. (alpha)    .... 1000.000
   Orbital update algorithm             .... Taylor
   White noise on init. David. guess    .... on
   Maximum white noise                  ....   0.010
   Quad. conv. algorithm                .... NR
   COSX micro iterations for RIJONX calc.... off
 SOSCF                  CNVSOSCF        .... on
   Start iteration      SOSCFMaxIt      ....   150
   Startup grad/error   SOSCFStart      ....  0.003300
 Level Shifting         CNVShift        .... on
   Level shift para.    LevelShift      ....    0.2500
   Turn off err/grad.   ShiftErr        ....    0.0010
 Zerner damping         CNVZerner       .... off
 Static damping         CNVDamp         .... on
   Fraction old density DampFac         ....    0.7000
   Max. Damping (<1)    DampMax         ....    0.9800
   Min. Damping (>=0)   DampMin         ....    0.0000
   Turn off err/grad.   DampErr         ....    0.1000
 Fernandez-Rico         CNVRico         .... off

SCF Procedure:
 Maximum # iterations   MaxIter         ....   125
 SCF integral mode      SCFMode         .... Direct
   Integral package                     .... SHARK and LIBINT hybrid scheme
 Reset frequency        DirectResetFreq ....    20
 Integral Threshold     Thresh          ....  2.500e-11 Eh
 Primitive CutOff       TCut            ....  2.500e-12 Eh

Convergence Tolerance:
 Convergence Check Mode ConvCheckMode   .... Total+1el-Energy
 Convergence forced     ConvForced      .... 0
 Energy Change          TolE            ....  1.000e-08 Eh
 1-El. energy change                    ....  1.000e-05 Eh
 Orbital Gradient       TolG            ....  1.000e-05
 Orbital Rotation angle TolX            ....  1.000e-05
 DIIS Error             TolErr          ....  5.000e-07


Diagonalization of the overlap matrix:
Smallest eigenvalue                        ... 1.392e-02
Time for diagonalization                   ...    0.002 sec
Threshold for overlap eigenvalues          ... 1.000e-08
Number of eigenvalues below threshold      ... 0
Time for construction of square roots      ...    0.510 sec
Total time needed                          ...    0.513 sec

--------------------------------
INITIAL GUESS: MINIMAL BASIS EHT
--------------------------------
The minimal basis has 33 functions
EHT matrix was diagonalized
Basis set overlap was calculated now projecting the orbitals
Using GuessMode=FMatrix for the initial guess
C*T matrix was formed
Effective Fockian was calculated
Effective Fockian was diagonalized
Initial density was built
                      ------------------
                      INITIAL GUESS DONE
                      ------------------
-------------------
DFT GRID GENERATION
-------------------

General Integration Accuracy     IntAcc      ... 4.959
Radial Grid Type                 RadialGrid  ... OptM3 with GC (2021)
Angular Grid (max. ang.)         AngularGrid ... 6 (Lebedev-590)
Angular grid pruning method      GridPruning ... 4 (adaptive)
Weight generation scheme         WeightScheme... Becke
Basis function cutoff            BFCut       ... 1.0000e-11
Integration weight cutoff        WCut        ... 1.0000e-14
Angular grids for H and He will be reduced by one unit
Partially contracted basis set               ... off
Rotationally invariant grid construction     ... off

Total number of grid points                  ...    82692
Total number of batches                      ...     1295
Average number of points per batch           ...       63
Average number of grid points per atom       ...    16538
Time for grid setup =    3.132 sec

--------------------
COSX GRID GENERATION
--------------------

GRIDX 1
-------
General Integration Accuracy     IntAcc      ... 4.020
Radial Grid Type                 RadialGrid  ... OptM3 with GC (2021)
Angular Grid (max. ang.)         AngularGrid ... 2 (Lebedev-110)
Angular grid pruning method      GridPruning ... 4 (adaptive)
Weight generation scheme         WeightScheme... Becke
Basis function cutoff            BFCut       ... 1.0000e-11
Integration weight cutoff        WCut        ... 1.0000e-14
Angular grids for H and He will be reduced by one unit
Partially contracted basis set               ... on
Rotationally invariant grid construction     ... off

Total number of grid points                  ...    10526
Total number of batches                      ...      168
Average number of points per batch           ...       62
Average number of grid points per atom       ...     2105
UseSFitting                                  ... on

GRIDX 2
-------
General Integration Accuracy     IntAcc      ... 4.338
Radial Grid Type                 RadialGrid  ... OptM3 with GC (2021)
Angular Grid (max. ang.)         AngularGrid ... 3 (Lebedev-194)
Angular grid pruning method      GridPruning ... 4 (adaptive)
Weight generation scheme         WeightScheme... Becke
Basis function cutoff            BFCut       ... 1.0000e-11
Integration weight cutoff        WCut        ... 1.0000e-14
Angular grids for H and He will be reduced by one unit
Partially contracted basis set               ... on
Rotationally invariant grid construction     ... off

Total number of grid points                  ...    22747
Total number of batches                      ...      357
Average number of points per batch           ...       63
Average number of grid points per atom       ...     4549
UseSFitting                                  ... on

GRIDX 3
-------
General Integration Accuracy     IntAcc      ... 4.871
Radial Grid Type                 RadialGrid  ... OptM3 with GC (2021)
Angular Grid (max. ang.)         AngularGrid ... 4 (Lebedev-302)
Angular grid pruning method      GridPruning ... 4 (adaptive)
Weight generation scheme         WeightScheme... Becke
Basis function cutoff            BFCut       ... 1.0000e-11
Integration weight cutoff        WCut        ... 1.0000e-14
Angular grids for H and He will be reduced by one unit
Partially contracted basis set               ... on
Rotationally invariant grid construction     ... off

Total number of grid points                  ...    40120
Total number of batches                      ...      629
Average number of points per batch           ...       63
Average number of grid points per atom       ...     8024
UseSFitting                                  ... on

Time for X-Grid setup             =    4.692 sec

--------------
SCF ITERATIONS
--------------
ITER       Energy         Delta-E        Max-DP      RMS-DP      [F,P]     Damp
               ***  Starting incremental Fock matrix formation  ***
  0   -631.6992148602   0.000000000000 0.28483067  0.01262388  1.4598623 0.7000
  1   -632.7632177899  -1.064002929711 0.22331813  0.00776993  1.0100781 0.7000
  2   -633.3552985766  -0.592080786650 0.17892900  0.00505068  0.6999155 0.7000
  3   -633.7642745688  -0.408975992188 0.14343138  0.00361186  0.4856626 0.7000
  4   -634.0540123386  -0.289737769823 0.11376352  0.00265593  0.3423669 0.7000
  5   -634.2579439012  -0.203931562613 0.08909343  0.00195940  0.2427612 0.7000
                               ***Turning on DIIS***
  6   -634.4011781073  -0.143234206137 0.06901310  0.00144654  0.1720901 0.7000
  7   -634.5017213708  -0.100543263432 0.05810971  0.00113374  0.1219722 0.7000
  8   -634.5722626995  -0.070541328766 0.14976579  0.00283356  0.0857690 0.0000
                      *** Initiating the SOSCF procedure ***
                           *** Shutting down DIIS ***
                      *** Re-Reading the Fockian *** 
                      *** Removing any level shift *** 
ITER      Energy       Delta-E        Grad      Rot      Max-DP    RMS-DP
  9   -634.73746810  -0.1652054025  0.000677  0.000677  0.006511  0.000106
               *** Restarting incremental Fock matrix formation ***
 10   -634.73749375  -0.0000256447  0.000236  0.000413  0.002542  0.000046
 11   -634.73749450  -0.0000007577  0.000138  0.000174  0.000992  0.000019
 12   -634.73749470  -0.0000001970  0.000048  0.000062  0.000593  0.000010
 13   -634.73749474  -0.0000000423  0.000010  0.000018  0.000018  0.000001
 14   -634.73749475  -0.0000000022  0.000007  0.000009  0.000032  0.000001
                  ***Gradient check signals convergence***
              ***Rediagonalizing the Fockian in SOSCF/NRSCF***

               *****************************************************
               *                     SUCCESS                       *
               *           SCF CONVERGED AFTER  15 CYCLES          *
               *****************************************************

Old exchange energy                            =    -23.749255074 Eh
New exchange energy                            =    -23.749268813 Eh
Exchange energy change after final integration =     -0.000013739 Eh
Total energy after final integration           =   -634.737508485 Eh
Final COS-X integration done in                =     0.943 sec

----------------
TOTAL SCF ENERGY
----------------

Total Energy       :         -634.73750848 Eh          -17272.08570 eV

Components:
Nuclear Repulsion  :          285.48798075 Eh            7768.52290 eV
Electronic Energy  :         -920.22548923 Eh          -25040.60860 eV
One Electron Energy:        -1554.89800546 Eh          -42310.92577 eV
Two Electron Energy:          634.67251623 Eh           17270.31717 eV
Max COSX asymmetry :            0.00000282 Eh               0.00008 eV

Virial components:
Potential Energy   :        -1083.44609405 Eh          -29482.06706 eV
Kinetic Energy     :          448.70858557 Eh           12209.98136 eV
Virial Ratio       :            2.41458739


DFT components:
N(Alpha)           :       29.000029004549 electrons
N(Beta)            :       29.000029004549 electrons
N(Total)           :       58.000058009098 electrons
E(X)               :      -31.821469471010 Eh       
E(C)               :       -2.942551740292 Eh       
E(XC)              :      -34.764021211301 Eh       
DFET-embed. en.    :        0.000000000000 Eh       

---------------
SCF CONVERGENCE
---------------

  Last Energy change         ...    2.3738e-10  Tolerance :   1.0000e-08
  Last MAX-Density change    ...    1.7764e-15  Tolerance :   1.0000e-07
  Last RMS-Density change    ...    7.4557e-17  Tolerance :   5.0000e-09
  Last Orbital Gradient      ...    5.8725e-07  Tolerance :   1.0000e-05
  Last Orbital Rotation      ...    6.5780e-07  Tolerance :   1.0000e-05

             **** THE GBW FILE WAS UPDATED (pbeh-3c.gbw) ****
             **** DENSITY pbeh-3c.scfp WAS UPDATED ****
             **** ENERGY FILE WAS UPDATED (pbeh-3c.en.tmp) ****
             **** THE GBW FILE WAS UPDATED (pbeh-3c.gbw) ****
             **** DENSITY pbeh-3c.scfp WAS UPDATED ****
----------------
ORBITAL ENERGIES
----------------

  NO   OCC          E(Eh)            E(eV) 
   0   2.0000     -25.158886      -684.6081 
   1   2.0000     -25.158794      -684.6056 
   2   2.0000     -25.158759      -684.6046 
   3   2.0000     -10.752228      -292.5830 
   4   2.0000      -7.123279      -193.8343 
   5   2.0000      -5.107993      -138.9955 
   6   2.0000      -5.089586      -138.4947 
   7   2.0000      -5.089586      -138.4947 
   8   2.0000      -2.062099       -56.1126 
   9   2.0000      -2.056173       -55.9513 
  10   2.0000      -2.056173       -55.9513 
  11   2.0000      -2.040164       -55.5157 
  12   2.0000      -2.040163       -55.5157 
  13   2.0000      -1.474580       -40.1254 
  14   2.0000      -1.379223       -37.5306 
  15   2.0000      -1.379167       -37.5290 
  16   2.0000      -0.853193       -23.2166 
  17   2.0000      -0.775146       -21.0928 
  18   2.0000      -0.694793       -18.9063 
  19   2.0000      -0.694771       -18.9057 
  20   2.0000      -0.645448       -17.5635 
  21   2.0000      -0.568299       -15.4642 
  22   2.0000      -0.568290       -15.4640 
  23   2.0000      -0.529564       -14.4102 
  24   2.0000      -0.529540       -14.4095 
  25   2.0000      -0.506385       -13.7794 
  26   2.0000      -0.427756       -11.6398 
  27   2.0000      -0.336396        -9.1538 
  28   2.0000      -0.336391        -9.1537 
  29   0.0000      -0.040409        -1.0996 
  30   0.0000       0.161171         4.3857 
  31   0.0000       0.161211         4.3868 
  32   0.0000       0.234175         6.3722 
  33   0.0000       0.281646         7.6640 
  34   0.0000       0.368189        10.0189 
  35   0.0000       0.400846        10.9076 
  36   0.0000       0.400889        10.9087 
  37   0.0000       0.424275        11.5451 
  38   0.0000       0.424277        11.5452 
  39   0.0000       0.440707        11.9922 
  40   0.0000       0.440710        11.9923 
  41   0.0000       0.462731        12.5916 
  42   0.0000       0.616408        16.7733 
  43   0.0000       0.616452        16.7745 
  44   0.0000       0.668077        18.1793 
  45   0.0000       0.821622        22.3575 
  46   0.0000       0.982764        26.7424 
  47   0.0000       0.982786        26.7430 
  48   0.0000       1.119580        30.4653 
  49   0.0000       1.119621        30.4664 
  50   0.0000       1.121557        30.5191 
  51   0.0000       1.165638        31.7186 
  52   0.0000       1.165679        31.7197 
  53   0.0000       1.168480        31.7959 
  54   0.0000       1.201410        32.6920 
  55   0.0000       1.201497        32.6944 
  56   0.0000       1.223698        33.2985 
  57   0.0000       1.242566        33.8119 
  58   0.0000       1.242586        33.8125 
  59   0.0000       1.258279        34.2395 
  60   0.0000       1.310308        35.6553 
  61   0.0000       1.361497        37.0482 
  62   0.0000       1.361553        37.0497 
  63   0.0000       1.650114        44.9019 
  64   0.0000       1.654173        45.0123 
  65   0.0000       1.654237        45.0141 
  66   0.0000       1.867768        50.8246 
  67   0.0000       2.004043        54.5328 
  68   0.0000       2.037661        55.4476 
  69   0.0000       2.037822        55.4520 
  70   0.0000       2.198157        59.8149 
  71   0.0000       2.198273        59.8181 
  72   0.0000       2.428486        66.0825 
  73   0.0000       2.452589        66.7383 
  74   0.0000       2.452600        66.7386 
  75   0.0000       2.940673        80.0198 
  76   0.0000       2.940780        80.0227 
  77   0.0000       3.055695        83.1497 
  78   0.0000      14.012517       381.3000 
  79   0.0000      18.679662       508.2994 
  80   0.0000      18.679664       508.2995 
  81   0.0000      19.142339       520.8895 
  82   0.0000      32.692590       889.6106 
  83   0.0000      32.692649       889.6122 
  84   0.0000      32.986057       897.5962 
  85   0.0000      55.962180      1522.8083 

                    ********************************
                    * MULLIKEN POPULATION ANALYSIS *
                    ********************************

-----------------------
MULLIKEN ATOMIC CHARGES
-----------------------
   0 I :    0.050741
   1 C :    0.755573
   2 F :   -0.268711
   3 F :   -0.268841
   4 F :   -0.268762
Sum of atomic charges:    0.0000000

--------------------------------
MULLIKEN REDUCED ORBITAL CHARGES
--------------------------------
  0 I s       :     3.964443  s :     3.964443
      pz      :     3.964693  p :    10.935661
      px      :     3.965632
      py      :     3.005336
      dz2     :     2.009275  d :    10.049154
      dxz     :     2.000526
      dyz     :     2.006123
      dx2y2   :     2.027327
      dxy     :     2.005903
  1 C s       :     2.940059  s :     2.940059
      pz      :     0.652330  p :     2.132307
      px      :     0.652145
      py      :     0.827831
      dz2     :     0.037868  d :     0.172062
      dxz     :     0.044714
      dyz     :     0.029244
      dx2y2   :     0.033668
      dxy     :     0.026567
  2 F s       :     3.905152  s :     3.905152
      pz      :     1.573171  p :     5.335865
      px      :     1.924891
      py      :     1.837804
      dz2     :     0.009722  d :     0.027694
      dxz     :     0.003973
      dyz     :     0.009126
      dx2y2   :     0.002986
      dxy     :     0.001887
  3 F s       :     3.905177  s :     3.905177
      pz      :     1.822461  p :     5.335969
      px      :     1.635487
      py      :     1.878021
      dz2     :     0.003587  d :     0.027695
      dxz     :     0.007929
      dyz     :     0.003366
      dx2y2   :     0.006030
      dxy     :     0.006782
  4 F s       :     3.905157  s :     3.905157
      pz      :     1.823904  p :     5.335910
      px      :     1.658949
      py      :     1.853057
      dz2     :     0.003587  d :     0.027694
      dxz     :     0.007384
      dyz     :     0.003850
      dx2y2   :     0.006011
      dxy     :     0.006861


                     *******************************
                     * LOEWDIN POPULATION ANALYSIS *
                     *******************************

----------------------
LOEWDIN ATOMIC CHARGES
----------------------
   0 I :    0.111252
   1 C :    0.235204
   2 F :   -0.115419
   3 F :   -0.115561
   4 F :   -0.115476

-------------------------------
LOEWDIN REDUCED ORBITAL CHARGES
-------------------------------
  0 I s       :     3.858139  s :     3.858139
      pz      :     3.944220  p :    10.969498
      px      :     3.945065
      py      :     3.080213
      dz2     :     2.012375  d :    10.061111
      dxz     :     2.000567
      dyz     :     2.005897
      dx2y2   :     2.036653
      dxy     :     2.005619
  1 C s       :     2.831490  s :     2.831490
      pz      :     0.802302  p :     2.543123
      px      :     0.802127
      py      :     0.938695
      dz2     :     0.088397  d :     0.390182
      dxz     :     0.103323
      dyz     :     0.061890
      dx2y2   :     0.081035
      dxy     :     0.055537
  2 F s       :     3.712428  s :     3.712428
      pz      :     1.590868  p :     5.323523
      px      :     1.897217
      py      :     1.835438
      dz2     :     0.026422  d :     0.079467
      dxz     :     0.016705
      dyz     :     0.025501
      dx2y2   :     0.007517
      dxy     :     0.003322
  3 F s       :     3.712485  s :     3.712485
      pz      :     1.808639  p :     5.323614
      px      :     1.646349
      py      :     1.868626
      dz2     :     0.012244  d :     0.079463
      dxz     :     0.021306
      dyz     :     0.008343
      dx2y2   :     0.018885
      dxy     :     0.018685
  4 F s       :     3.712442  s :     3.712442
      pz      :     1.809887  p :     5.323561
      px      :     1.665591
      py      :     1.848083
      dz2     :     0.012197  d :     0.079473
      dxz     :     0.020096
      dyz     :     0.009442
      dx2y2   :     0.018991
      dxy     :     0.018747


                      *****************************
                      * MAYER POPULATION ANALYSIS *
                      *****************************

  NA   - Mulliken gross atomic population
  ZA   - Total nuclear charge
  QA   - Mulliken gross atomic charge
  VA   - Mayer's total valence
  BVA  - Mayer's bonded valence
  FA   - Mayer's free valence

  ATOM       NA         ZA         QA         VA         BVA        FA
  0 I     24.9493    25.0000     0.0507     1.1294     1.1294    -0.0000
  1 C      5.2444     6.0000     0.7556     4.0618     4.0618     0.0000
  2 F      9.2687     9.0000    -0.2687     1.1225     1.1225     0.0000
  3 F      9.2688     9.0000    -0.2688     1.1223     1.1223     0.0000
  4 F      9.2688     9.0000    -0.2688     1.1224     1.1224     0.0000

  Mayer bond orders larger than 0.100000
B(  0-I ,  1-C ) :   0.9929 B(  1-C ,  2-F ) :   1.0230 B(  1-C ,  3-F ) :   1.0229 
B(  1-C ,  4-F ) :   1.0230 

-------
TIMINGS
-------

Total SCF time: 0 days 0 hours 1 min 2 sec 

Total time                  ....      62.663 sec
Sum of individual times     ....      55.309 sec  ( 88.3%)

Fock matrix formation       ....      43.453 sec  ( 69.3%)
  Split-RI-J                ....       5.986 sec  ( 13.8% of F)
  Chain of spheres X        ....      10.928 sec  ( 25.1% of F)
  XC integration            ....      11.147 sec  ( 25.7% of F)
    Basis function eval.    ....       1.596 sec  ( 14.3% of XC)
    Density eval.           ....       0.976 sec  (  8.8% of XC)
    XC-Functional eval.     ....       0.776 sec  (  7.0% of XC)
    XC-Potential eval.      ....       0.576 sec  (  5.2% of XC)
Diagonalization             ....       0.645 sec  (  1.0%)
Density matrix formation    ....       0.124 sec  (  0.2%)
Population analysis         ....       0.763 sec  (  1.2%)
Initial guess               ....       0.005 sec  (  0.0%)
Orbital Transformation      ....       0.000 sec  (  0.0%)
Orbital Orthonormalization  ....       0.000 sec  (  0.0%)
DIIS solution               ....       2.107 sec  (  3.4%)
SOSCF solution              ....       0.388 sec  (  0.6%)
Grid generation             ....       7.824 sec  ( 12.5%)

Maximum memory used throughout the entire SCF-calculation: 47.3 MB


-------------------------------------------------------------------------------
                          DFT DISPERSION CORRECTION                            
                                                                               
                              DFTD3 V3.1  Rev 1                                
                          USING Becke-Johnson damping                          
-------------------------------------------------------------------------------
The PBEh-3c composite method is recognized
Using three-body term ABC
Active option DFTDOPT                   ...         4   

molecular C6(AA) [au] = 939.264997 


            DFT-D V3
 parameters
 s6 scaling factor         :     1.0000 
 a1 scaling factor         :     0.4860 
 s8 scaling factor         :     0.0000 
 a2 scaling factor         :     4.5000 
 Damping factor alpha9(ATM):    16.0000 
 ad hoc parameters k1-k3   :    16.0000     1.3333    -4.0000 

 Edisp/kcal,au: -0.968209387366  -0.001542939707 
 E6   /kcal   :  -0.968386638 
 E8   /kcal   :  -0.000000000 
 E6(ABC)      :   0.000177250 
 % E8         :   0.000000000 
 % E6(ABC)    :  -0.018307023 

-------------------------   ----------------
Dispersion correction           -0.001542940
-------------------------   ----------------

 ** NOTE ** -> element i  will be treated as br
NOTIFICATION: Different basis set in ORCA and otool_gcp:
ORCA: 86  gCP: 92 
If you are NOT using ECPs, check your basis set inputs!
------------------   -----------------
gCP correction             0.021709134
------------------   -----------------

-------------------------   --------------------
FINAL SINGLE POINT ENERGY      -634.717342290467
-------------------------   --------------------


                            ***************************************
                            *     ORCA property calculations      *
                            ***************************************

                                    ---------------------
                                    Active property flags
                                    ---------------------
   (+) Dipole Moment


------------------------------------------------------------------------------
                       ORCA ELECTRIC PROPERTIES CALCULATION
------------------------------------------------------------------------------

Dipole Moment Calculation                       ... on
Quadrupole Moment Calculation                   ... off
Polarizability Calculation                      ... off
GBWName                                         ... pbeh-3c.gbw
Electron density                                ... pbeh-3c.scfp
The origin for moment calculation is the CENTER OF MASS  = ( 0.087474, -7.745806  3.362797)

-------------
DIPOLE MOMENT
-------------
                                X             Y             Z
Electronic contribution:     -2.89693      59.67662      -3.44954
Nuclear contribution   :      2.88030     -59.33657       3.42965
                        -----------------------------------------
Total Dipole Moment    :     -0.01663       0.34005      -0.01989
                        -----------------------------------------
Magnitude (a.u.)       :      0.34104
Magnitude (Debye)      :      0.86686



--------------------
Rotational spectrum 
--------------------
 
Rotational constants in cm-1:     0.191081     0.051241     0.051240 
Rotational constants in MHz :  5728.473217  1536.169680  1536.138441 

 Dipole components along the rotational axes: 
x,y,z [a.u.] :     0.341041    -0.000271     0.000042 
x,y,z [Debye]:     0.866857    -0.000690     0.000107 

 

Timings for individual modules:

Sum of individual times         ...       66.747 sec (=   1.112 min)
GTO integral calculation        ...        3.006 sec (=   0.050 min)   4.5 %
SCF iterations                  ...       63.742 sec (=   1.062 min)  95.5 %
                             ****ORCA TERMINATED NORMALLY****
TOTAL RUN TIME: 0 days 0 hours 1 minutes 9 seconds 647 msec
