
                                 *****************
                                 * O   R   C   A *
                                 *****************

                                            #,                                       
                                            ###                                      
                                            ####                                     
                                            #####                                    
                                            ######                                   
                                           ########,                                 
                                     ,,################,,,,,                         
                               ,,#################################,,                 
                          ,,##########################################,,             
                       ,#########################################, ''#####,          
                    ,#############################################,,   '####,        
                  ,##################################################,,,,####,       
                ,###########''''           ''''###############################       
              ,#####''   ,,,,##########,,,,          '''####'''          '####       
            ,##' ,,,,###########################,,,                        '##       
           ' ,,###''''                  '''############,,,                           
         ,,##''                                '''############,,,,        ,,,,,,###''
      ,#''                                            '''#######################'''  
     '                                                          ''''####''''         
             ,#######,   #######,   ,#######,      ##                                
            ,#'     '#,  ##    ##  ,#'     '#,    #''#        ######   ,####,        
            ##       ##  ##   ,#'  ##            #'  '#       #        #'  '#        
            ##       ##  #######   ##           ,######,      #####,   #    #        
            '#,     ,#'  ##    ##  '#,     ,#' ,#      #,         ##   #,  ,#        
             '#######'   ##     ##  '#######'  #'      '#     #####' # '####'        



                  #######################################################
                  #                        -***-                        #
                  #          Department of theory and spectroscopy      #
                  #    Directorship and core code : Frank Neese         #
                  #        Max Planck Institute fuer Kohlenforschung    #
                  #                Kaiser Wilhelm Platz 1               #
                  #                 D-45470 Muelheim/Ruhr               #
                  #                      Germany                        #
                  #                                                     #
                  #                  All rights reserved                #
                  #                        -***-                        #
                  #######################################################


                         Program Version 5.0.3 -  RELEASE  -


 With contributions from (in alphabetic order):
   Daniel Aravena         : Magnetic Suceptibility
   Michael Atanasov       : Ab Initio Ligand Field Theory (pilot matlab implementation)
   Alexander A. Auer      : GIAO ZORA, VPT2 properties, NMR spectrum
   Ute Becker             : Parallelization
   Giovanni Bistoni       : ED, misc. LED, open-shell LED, HFLD
   Martin Brehm           : Molecular dynamics
   Dmytro Bykov           : SCF Hessian
   Vijay G. Chilkuri      : MRCI spin determinant printing, contributions to CSF-ICE
   Dipayan Datta          : RHF DLPNO-CCSD density
   Achintya Kumar Dutta   : EOM-CC, STEOM-CC
   Dmitry Ganyushin       : Spin-Orbit,Spin-Spin,Magnetic field MRCI
   Miquel Garcia          : C-PCM and meta-GGA Hessian, CC/C-PCM, Gaussian charge scheme
   Yang Guo               : DLPNO-NEVPT2, F12-NEVPT2, CIM, IAO-localization
   Andreas Hansen         : Spin unrestricted coupled pair/coupled cluster methods
   Benjamin Helmich-Paris : MC-RPA, TRAH-SCF, COSX integrals
   Lee Huntington         : MR-EOM, pCC
   Robert Izsak           : Overlap fitted RIJCOSX, COSX-SCS-MP3, EOM
   Marcus Kettner         : VPT2
   Christian Kollmar      : KDIIS, OOCD, Brueckner-CCSD(T), CCSD density, CASPT2, CASPT2-K
   Simone Kossmann        : Meta GGA functionals, TD-DFT gradient, OOMP2, MP2 Hessian
   Martin Krupicka        : Initial AUTO-CI
   Lucas Lang             : DCDCAS
   Marvin Lechner         : AUTO-CI (C++ implementation), FIC-MRCC
   Dagmar Lenk            : GEPOL surface, SMD
   Dimitrios Liakos       : Extrapolation schemes; Compound Job, initial MDCI parallelization
   Dimitrios Manganas     : Further ROCIS development; embedding schemes
   Dimitrios Pantazis     : SARC Basis sets
   Anastasios Papadopoulos: AUTO-CI, single reference methods and gradients
   Taras Petrenko         : DFT Hessian,TD-DFT gradient, ASA, ECA, R-Raman, ABS, FL, XAS/XES, NRVS
   Peter Pinski           : DLPNO-MP2, DLPNO-MP2 Gradient
   Christoph Reimann      : Effective Core Potentials
   Marius Retegan         : Local ZFS, SOC
   Christoph Riplinger    : Optimizer, TS searches, QM/MM, DLPNO-CCSD(T), (RO)-DLPNO pert. Triples
   Tobias Risthaus        : Range-separated hybrids, TD-DFT gradient, RPA, STAB
   Michael Roemelt        : Original ROCIS implementation
   Masaaki Saitow         : Open-shell DLPNO-CCSD energy and density
   Barbara Sandhoefer     : DKH picture change effects
   Avijit Sen             : IP-ROCIS
   Kantharuban Sivalingam : CASSCF convergence, NEVPT2, FIC-MRCI
   Bernardo de Souza      : ESD, SOC TD-DFT
   Georgi Stoychev        : AutoAux, RI-MP2 NMR, DLPNO-MP2 response
   Willem Van den Heuvel  : Paramagnetic NMR
   Boris Wezisla          : Elementary symmetry handling
   Frank Wennmohs         : Technical directorship


 We gratefully acknowledge several colleagues who have allowed us to
 interface, adapt or use parts of their codes:
   Stefan Grimme, W. Hujo, H. Kruse, P. Pracht,  : VdW corrections, initial TS optimization,
                  C. Bannwarth, S. Ehlert          DFT functionals, gCP, sTDA/sTD-DF
   Ed Valeev, F. Pavosevic, A. Kumar             : LibInt (2-el integral package), F12 methods
   Garnet Chan, S. Sharma, J. Yang, R. Olivares  : DMRG
   Ulf Ekstrom                                   : XCFun DFT Library
   Mihaly Kallay                                 : mrcc  (arbitrary order and MRCC methods)
   Jiri Pittner, Ondrej Demel                    : Mk-CCSD
   Frank Weinhold                                : gennbo (NPA and NBO analysis)
   Christopher J. Cramer and Donald G. Truhlar   : smd solvation model
   Lars Goerigk                                  : TD-DFT with DH, B97 family of functionals
   V. Asgeirsson, H. Jonsson                     : NEB implementation
   FAccTs GmbH                                   : IRC, NEB, NEB-TS, DLPNO-Multilevel, CI-OPT
                                                   MM, QMMM, 2- and 3-layer-ONIOM, Crystal-QMMM,
                                                   LR-CPCM, SF, NACMEs, symmetry and pop. for TD-DFT,
                                                   nearIR, NL-DFT gradient (VV10), updates on ESD,
                                                   ML-optimized integration grids
   S Lehtola, MJT Oliveira, MAL Marques          : LibXC Library
   Liviu Ungur et al                             : ANISO software


 Your calculation uses the libint2 library for the computation of 2-el integrals
 For citations please refer to: http://libint.valeyev.net

 Your ORCA version has been built with support for libXC version: 5.1.0
 For citations please refer to: https://tddft.org/programs/libxc/

 This ORCA versions uses:
   CBLAS   interface :  Fast vector & matrix operations
   LAPACKE interface :  Fast linear algebra routines
   SCALAPACK package :  Parallel linear algebra routines
   Shared memory     :  Shared parallel matrices
   BLAS/LAPACK       :  OpenBLAS 0.3.15  USE64BITINT DYNAMIC_ARCH NO_AFFINITY Haswell SINGLE_THREADED
        Core in use  :  Haswell
   Copyright (c) 2011-2014, The OpenBLAS Project




***************************************
The coordinates will be read from file: 19.xyz
***************************************


Your calculation utilizes the geometrical counterpoise correction gCP
Please cite in your paper:
H.Kruse, S. Grimme J.Chem.Phys., 136, (2012), 154101 
   

Your calculation utilizes the atom-pairwise dispersion correction
with the Becke-Johnson damping scheme (D3BJ)
Cite in your paper:
S.Grimme, S.Ehrlich, L.Goerigk, J Comput Chem, (2011), 32, 1456–1465 
S.Grimme, J.Antony, S.Ehrlich and H.Krieg, J.Chem.Phys., 132, (2010), 154104 
   

Your calculation employs the composite approach PBEh-3c.
Please cite in your paper:
S. Grimme, J. G. Brandenburg, C. Bannwarth, A. Hansen J.Chem.Phys., 143, (2015), 054107 
   

================================================================================

----- Orbital basis set information -----
Your calculation utilizes the basis: def2-mSVP

----- AuxJ basis set information -----
Your calculation utilizes the auxiliary basis: def2/J
   F. Weigend, Phys. Chem. Chem. Phys. 8, 1057 (2006).

================================================================================
                                        WARNINGS
                       Please study these warnings very carefully!
================================================================================


INFO   : the flag for use of the SHARK integral package has been found!

================================================================================
                                       INPUT FILE
================================================================================
NAME = pbeh-3c.inp
|  1> ! PBEh-3c def2/J TightSCF DefGrid3
|  2> 
|  3> %maxcore 60000
|  4> 
|  5> %pal
|  6> nprocs 4
|  7> end
|  8> 
|  9> *xyzfile 0 1 19.xyz
| 10> 
| 11>                          ****END OF INPUT****
================================================================================

                       ****************************
                       * Single Point Calculation *
                       ****************************

---------------------------------
CARTESIAN COORDINATES (ANGSTROEM)
---------------------------------
  H     -1.133138   -0.711229   -1.230297
  F      2.363683   -1.083756    0.235073
  P     -2.604677   -0.919362    0.512722
  Al    -0.693043   -0.280344    1.822769
  H     -2.297734   -2.277951    0.211075
  H      0.326970    1.389006   -1.736913
  Al     2.241398   -0.893459   -1.872358
  B      1.180753    1.024380   -0.954554
  Li    -1.229202    1.537810   -0.739180
  P      1.241227    1.513840    0.967480
  O     -1.939071   -0.227071   -0.962877
  H     -0.184830   -0.931289    3.164572
  H      0.156111   -1.059551    0.280588
  B      1.113650   -0.300263    0.163916
  S     -0.843272    1.953596    1.523386
  H      2.301173    1.265641   -1.385402

----------------------------
CARTESIAN COORDINATES (A.U.)
----------------------------
  NO LB      ZA    FRAG     MASS         X           Y           Z
   0 H     1.0000    0     1.008   -2.141320   -1.344027   -2.324925
   1 F     9.0000    0    18.998    4.466713   -2.048001    0.444224
   2 P    15.0000    0    30.974   -4.922125   -1.737342    0.968903
   3 Al   13.0000    0    26.982   -1.309661   -0.529774    3.444535
   4 H     1.0000    0     1.008   -4.342088   -4.304703    0.398874
   5 H     1.0000    0     1.008    0.617884    2.624841   -3.282289
   6 Al   13.0000    0    26.982    4.235629   -1.688393   -3.538243
   7 B     5.0000    0    10.810    2.231301    1.935798   -1.803846
   8 Li    3.0000    0     6.941   -2.322855    2.906040   -1.396849
   9 P    15.0000    0    30.974    2.345579    2.860743    1.828272
  10 O     8.0000    0    15.999   -3.664314   -0.429102   -1.819574
  11 H     1.0000    0     1.008   -0.349279   -1.759881    5.980175
  12 H     1.0000    0     1.008    0.295008   -2.002261    0.530234
  13 B     5.0000    0    10.810    2.104494   -0.567414    0.309756
  14 S    16.0000    0    32.060   -1.593553    3.691762    2.878782
  15 H     1.0000    0     1.008    4.348587    2.391715   -2.618030

--------------------------------
INTERNAL COORDINATES (ANGSTROEM)
--------------------------------
 H      0   0   0     0.000000000000     0.00000000     0.00000000
 F      1   0   0     3.809703581197     0.00000000     0.00000000
 P      1   2   0     2.290602528215   106.74350879     0.00000000
 Al     3   1   2     2.403936903934    83.08871156    22.40953471
 H      3   1   2     1.425120098601    77.71306892   279.11269044
 H      1   2   3     2.607596657895    68.87098657   122.26978437
 Al     2   1   3     2.119535505134    63.62912186   175.80448080
 B      6   1   2     1.214076801479    91.52877757   348.30957418
 Li     6   1   2     1.854530386570    59.35227826   241.13771546
 P      8   6   1     1.984299522626   124.85736557   269.14074811
 O      1   2   3     0.977471631425   134.42662910    44.08870701
 H      4   3   1     1.575577404428   127.64578397   225.40698983
 H      4   3   1     1.925239971063    78.84997927   334.53715002
 B     13   4   3     1.227603874190    99.77801308   142.36975636
 S     10   8   6     2.201716063436   105.36568275    25.43984339
 H      8   6   1     1.224408637506   110.95151264   141.43228329

---------------------------
INTERNAL COORDINATES (A.U.)
---------------------------
 H      0   0   0     0.000000000000     0.00000000     0.00000000
 F      1   0   0     7.199296419881     0.00000000     0.00000000
 P      1   2   0     4.328611459994   106.74350879     0.00000000
 Al     3   1   2     4.542782391663    83.08871156    22.40953471
 H      3   1   2     2.693086694303    77.71306892   279.11269044
 H      1   2   3     4.927643551150    68.87098657   122.26978437
 Al     2   1   3     4.005341635825    63.62912186   175.80448080
 B      6   1   2     2.294272660342    91.52877757   348.30957418
 Li     6   1   2     3.504554537653    59.35227826   241.13771546
 P      8   6   1     3.749782665433   124.85736557   269.14074811
 O      1   2   3     1.847153687071   134.42662910    44.08870701
 H      4   3   1     2.977409797164   127.64578397   225.40698983
 H      4   3   1     3.638176287387    78.84997927   334.53715002
 B     13   4   3     2.319835123159    99.77801308   142.36975636
 S     10   8   6     4.160640384549   105.36568275    25.43984339
 H      8   6   1     2.313797000894   110.95151264   141.43228329

---------------------
BASIS SET INFORMATION
---------------------
There are 8 groups of distinct atoms

 Group   1 Type H   : 4s contracted to 2s pattern {31}
 Group   2 Type F   : 8s4p1d contracted to 4s2p1d pattern {5111/31/1}
 Group   3 Type P   : 10s7p1d contracted to 4s3p1d pattern {5311/511/1}
 Group   4 Type Al  : 10s7p1d contracted to 4s3p1d pattern {5311/511/1}
 Group   5 Type B   : 8s4p1d contracted to 4s2p1d pattern {5111/31/1}
 Group   6 Type Li  : 7s3p contracted to 3s2p pattern {511/21}
 Group   7 Type O   : 8s4p1d contracted to 4s2p1d pattern {5111/31/1}
 Group   8 Type S   : 10s7p1d contracted to 4s3p1d pattern {5311/511/1}

Atom   0H    basis set group =>   1
Atom   1F    basis set group =>   2
Atom   2P    basis set group =>   3
Atom   3Al   basis set group =>   4
Atom   4H    basis set group =>   1
Atom   5H    basis set group =>   1
Atom   6Al   basis set group =>   4
Atom   7B    basis set group =>   5
Atom   8Li   basis set group =>   6
Atom   9P    basis set group =>   3
Atom  10O    basis set group =>   7
Atom  11H    basis set group =>   1
Atom  12H    basis set group =>   1
Atom  13B    basis set group =>   5
Atom  14S    basis set group =>   8
Atom  15H    basis set group =>   1
---------------------------------
AUXILIARY/J BASIS SET INFORMATION
---------------------------------
There are 8 groups of distinct atoms

 Group   1 Type H   : 5s2p1d contracted to 3s1p1d pattern {311/2/1}
 Group   2 Type F   : 12s5p4d2f1g contracted to 6s4p3d1f1g pattern {711111/2111/211/2/1}
 Group   3 Type P   : 14s5p5d2f1g contracted to 8s4p3d1f1g pattern {71111111/2111/311/2/1}
 Group   4 Type Al  : 14s5p5d2f1g contracted to 8s4p3d1f1g pattern {71111111/2111/311/2/1}
 Group   5 Type B   : 12s5p4d2f1g contracted to 6s4p3d1f1g pattern {711111/2111/211/2/1}
 Group   6 Type Li  : 12s5p4d2f1g contracted to 6s4p3d1f1g pattern {711111/2111/211/2/1}
 Group   7 Type O   : 12s5p4d2f1g contracted to 6s4p3d1f1g pattern {711111/2111/211/2/1}
 Group   8 Type S   : 14s5p5d2f1g contracted to 8s4p3d1f1g pattern {71111111/2111/311/2/1}

Atom   0H    basis set group =>   1
Atom   1F    basis set group =>   2
Atom   2P    basis set group =>   3
Atom   3Al   basis set group =>   4
Atom   4H    basis set group =>   1
Atom   5H    basis set group =>   1
Atom   6Al   basis set group =>   4
Atom   7B    basis set group =>   5
Atom   8Li   basis set group =>   6
Atom   9P    basis set group =>   3
Atom  10O    basis set group =>   7
Atom  11H    basis set group =>   1
Atom  12H    basis set group =>   1
Atom  13B    basis set group =>   5
Atom  14S    basis set group =>   8
Atom  15H    basis set group =>   1


           ************************************************************
           *        Program running with 4 parallel MPI-processes     *
           *              working on a common directory               *
           ************************************************************
------------------------------------------------------------------------------
                           ORCA GTO INTEGRAL CALCULATION
                           -- RI-GTO INTEGRALS CHOSEN --
------------------------------------------------------------------------------
------------------------------------------------------------------------------
                   ___                                                        
                  /   \      - P O W E R E D   B Y -                         
                 /     \                                                     
                 |  |  |   _    _      __       _____    __    __             
                 |  |  |  | |  | |    /  \     |  _  \  |  |  /  |          
                  \  \/   | |  | |   /    \    | | | |  |  | /  /          
                 / \  \   | |__| |  /  /\  \   | |_| |  |  |/  /          
                |  |  |   |  __  | /  /__\  \  |    /   |      \           
                |  |  |   | |  | | |   __   |  |    \   |  |\   \          
                \     /   | |  | | |  |  |  |  | |\  \  |  | \   \       
                 \___/    |_|  |_| |__|  |__|  |_| \__\ |__|  \__/        
                                                                              
                      - O R C A' S   B I G   F R I E N D -                    
                                      &                                       
                       - I N T E G R A L  F E E D E R -                       
                                                                              
 v1 FN, 2020, v2 2021                                                         
------------------------------------------------------------------------------


Reading SHARK input file pbeh-3c.SHARKINP.tmp ... ok
----------------------
SHARK INTEGRAL PACKAGE
----------------------

Number of atoms                             ...     16
Number of basis functions                   ...    171
Number of shells                            ...     85
Maximum angular momentum                    ...      2
Integral batch strategy                     ... SHARK/LIBINT Hybrid
RI-J (if used) integral strategy            ... SPLIT-RIJ (Revised 2003 algorithm where possible)
Printlevel                                  ...      1
Contraction scheme used                     ... SEGMENTED contraction
Coulomb Range Separation                    ... NOT USED
Exchange Range Separation                   ... NOT USED
Finite Nucleus Model                        ... NOT USED
Auxiliary Coulomb fitting basis             ... AVAILABLE
   # of basis functions in Aux-J            ...    566
   # of shells in Aux-J                     ...    190
   Maximum angular momentum in Aux-J        ...      4
Auxiliary J/K fitting basis                 ... NOT available
Auxiliary Correlation fitting basis         ... NOT available
Auxiliary 'external' fitting basis          ... NOT available
Integral threshold                          ...     2.500000e-11
Primitive cut-off                           ...     2.500000e-12
Primitive pair pre-selection threshold      ...     2.500000e-12

Calculating pre-screening integrals         ... done (  0.1 sec) Dimension = 85
Organizing shell pair data                  ... done (  0.2 sec)
Shell pair information
Total number of shell pairs                 ...      3655
Shell pairs after pre-screening             ...      3261
Total number of primitive shell pairs       ...     15772
Primitive shell pairs kept                  ...      9257
          la=0 lb=0:   1114 shell pairs
          la=1 lb=0:   1155 shell pairs
          la=1 lb=1:    309 shell pairs
          la=2 lb=0:    421 shell pairs
          la=2 lb=1:    217 shell pairs
          la=2 lb=2:     45 shell pairs

Calculating one electron integrals          ... done (  0.3 sec)
Calculating RI/J V-Matrix + Cholesky decomp.... done (  0.3 sec)
Calculating Nuclear repulsion               ... done (  0.0 sec) ENN=    893.968581138257 Eh

SHARK setup successfully completed in   2.0 seconds

Maximum memory used throughout the entire GTOINT-calculation: 12.1 MB


           ************************************************************
           *        Program running with 4 parallel MPI-processes     *
           *              working on a common directory               *
           ************************************************************
-------------------------------------------------------------------------------
                                 ORCA SCF
-------------------------------------------------------------------------------

------------
SCF SETTINGS
------------
Hamiltonian:
 Density Functional     Method          .... DFT(GTOs)
 Exchange Functional    Exchange        .... PBE
   PBE kappa parameter   XKappa         ....  1.024500
   PBE mue parameter    XMuePBE         ....  0.123457
 Correlation Functional Correlation     .... PBE
   PBE beta parameter  CBetaPBE         ....  0.030000
 LDA part of GGA corr.  LDAOpt          .... PW91-LDA
 Gradients option       PostSCFGGA      .... off
 Hybrid DFT is turned on
   Fraction HF Exchange ScalHFX         ....  0.420000
   Scaling of DF-GGA-X  ScalDFX         ....  0.580000
   Scaling of DF-GGA-C  ScalDFC         ....  1.000000
   Scaling of DF-LDA-C  ScalLDAC        ....  1.000000
   Perturbative correction              ....  0.000000
   Density functional embedding theory  .... OFF
 RI-approximation to the Coulomb term is turned on
   Number of AuxJ basis functions       .... 566
   RIJ-ON(X) (HFX calculated with O(N)) .... on
   Number of AuxJ basis functions       .... 566
   RIJ-COSX (HFX calculated with COS-X)).... on


General Settings:
 Integral files         IntName         .... pbeh-3c
 Hartree-Fock type      HFTyp           .... RHF
 Total Charge           Charge          ....    0
 Multiplicity           Mult            ....    1
 Number of Electrons    NEL             ....  108
 Basis Dimension        Dim             ....  171
 Nuclear Repulsion      ENuc            ....    893.9685811383 Eh

Convergence Acceleration:
 DIIS                   CNVDIIS         .... on
   Start iteration      DIISMaxIt       ....    12
   Startup error        DIISStart       ....  0.200000
   # of expansion vecs  DIISMaxEq       ....     5
   Bias factor          DIISBfac        ....   1.050
   Max. coefficient     DIISMaxC        ....  10.000
 Trust-Rad. Augm. Hess. CNVTRAH         .... auto
   Auto Start mean grad. ratio tolernc. ....  1.125000
   Auto Start start iteration           ....    20
   Auto Start num. interpolation iter.  ....    10
   Max. Number of Micro iterations      ....    16
   Max. Number of Macro iterations      .... Maxiter - #DIIS iter
   Number of Davidson start vectors     ....     2
   Converg. threshold I  (grad. norm)   ....   1.000e-05
   Converg. threshold II (energy diff.) ....   1.000e-08
   Grad. Scal. Fac. for Micro threshold ....   0.100
   Minimum threshold for Micro iter.    ....   0.010
   NR start threshold (gradient norm)   ....   0.001
   Initial trust radius                 ....   0.400
   Minimum AH scaling param. (alpha)    ....   1.000
   Maximum AH scaling param. (alpha)    .... 1000.000
   Orbital update algorithm             .... Taylor
   White noise on init. David. guess    .... on
   Maximum white noise                  ....   0.010
   Quad. conv. algorithm                .... NR
   COSX micro iterations for RIJONX calc.... off
 SOSCF                  CNVSOSCF        .... on
   Start iteration      SOSCFMaxIt      ....   150
   Startup grad/error   SOSCFStart      ....  0.003300
 Level Shifting         CNVShift        .... on
   Level shift para.    LevelShift      ....    0.2500
   Turn off err/grad.   ShiftErr        ....    0.0010
 Zerner damping         CNVZerner       .... off
 Static damping         CNVDamp         .... on
   Fraction old density DampFac         ....    0.7000
   Max. Damping (<1)    DampMax         ....    0.9800
   Min. Damping (>=0)   DampMin         ....    0.0000
   Turn off err/grad.   DampErr         ....    0.1000
 Fernandez-Rico         CNVRico         .... off

SCF Procedure:
 Maximum # iterations   MaxIter         ....   125
 SCF integral mode      SCFMode         .... Direct
   Integral package                     .... SHARK and LIBINT hybrid scheme
 Reset frequency        DirectResetFreq ....    20
 Integral Threshold     Thresh          ....  2.500e-11 Eh
 Primitive CutOff       TCut            ....  2.500e-12 Eh

Convergence Tolerance:
 Convergence Check Mode ConvCheckMode   .... Total+1el-Energy
 Convergence forced     ConvForced      .... 0
 Energy Change          TolE            ....  1.000e-08 Eh
 1-El. energy change                    ....  1.000e-05 Eh
 Orbital Gradient       TolG            ....  1.000e-05
 Orbital Rotation angle TolX            ....  1.000e-05
 DIIS Error             TolErr          ....  5.000e-07


Diagonalization of the overlap matrix:
Smallest eigenvalue                        ... 3.246e-03
Time for diagonalization                   ...    0.048 sec
Threshold for overlap eigenvalues          ... 1.000e-08
Number of eigenvalues below threshold      ... 0
Time for construction of square roots      ...    0.323 sec
Total time needed                          ...    0.695 sec

--------------------------------
INITIAL GUESS: MINIMAL BASIS EHT
--------------------------------
The minimal basis has 76 functions
EHT matrix was diagonalized
Basis set overlap was calculated now projecting the orbitals
Using GuessMode=FMatrix for the initial guess
C*T matrix was formed
Effective Fockian was calculated
Effective Fockian was diagonalized
Initial density was built
                      ------------------
                      INITIAL GUESS DONE
                      ------------------
-------------------
DFT GRID GENERATION
-------------------

General Integration Accuracy     IntAcc      ... 4.959
Radial Grid Type                 RadialGrid  ... OptM3 with GC (2021)
Angular Grid (max. ang.)         AngularGrid ... 6 (Lebedev-590)
Angular grid pruning method      GridPruning ... 4 (adaptive)
Weight generation scheme         WeightScheme... Becke
Basis function cutoff            BFCut       ... 1.0000e-11
Integration weight cutoff        WCut        ... 1.0000e-14
Angular grids for H and He will be reduced by one unit
Partially contracted basis set               ... off
Rotationally invariant grid construction     ... off

Total number of grid points                  ...   200833
Total number of batches                      ...     3144
Average number of points per batch           ...       63
Average number of grid points per atom       ...    12552
Time for grid setup =    6.056 sec

--------------------
COSX GRID GENERATION
--------------------

GRIDX 1
-------
General Integration Accuracy     IntAcc      ... 4.020
Radial Grid Type                 RadialGrid  ... OptM3 with GC (2021)
Angular Grid (max. ang.)         AngularGrid ... 2 (Lebedev-110)
Angular grid pruning method      GridPruning ... 4 (adaptive)
Weight generation scheme         WeightScheme... Becke
Basis function cutoff            BFCut       ... 1.0000e-11
Integration weight cutoff        WCut        ... 1.0000e-14
Angular grids for H and He will be reduced by one unit
Partially contracted basis set               ... on
Rotationally invariant grid construction     ... off

Total number of grid points                  ...    22854
Total number of batches                      ...      364
Average number of points per batch           ...       62
Average number of grid points per atom       ...     1428
UseSFitting                                  ... on

GRIDX 2
-------
General Integration Accuracy     IntAcc      ... 4.338
Radial Grid Type                 RadialGrid  ... OptM3 with GC (2021)
Angular Grid (max. ang.)         AngularGrid ... 3 (Lebedev-194)
Angular grid pruning method      GridPruning ... 4 (adaptive)
Weight generation scheme         WeightScheme... Becke
Basis function cutoff            BFCut       ... 1.0000e-11
Integration weight cutoff        WCut        ... 1.0000e-14
Angular grids for H and He will be reduced by one unit
Partially contracted basis set               ... on
Rotationally invariant grid construction     ... off

Total number of grid points                  ...    52910
Total number of batches                      ...      835
Average number of points per batch           ...       63
Average number of grid points per atom       ...     3307
UseSFitting                                  ... on

GRIDX 3
-------
General Integration Accuracy     IntAcc      ... 4.871
Radial Grid Type                 RadialGrid  ... OptM3 with GC (2021)
Angular Grid (max. ang.)         AngularGrid ... 4 (Lebedev-302)
Angular grid pruning method      GridPruning ... 4 (adaptive)
Weight generation scheme         WeightScheme... Becke
Basis function cutoff            BFCut       ... 1.0000e-11
Integration weight cutoff        WCut        ... 1.0000e-14
Angular grids for H and He will be reduced by one unit
Partially contracted basis set               ... on
Rotationally invariant grid construction     ... off

Total number of grid points                  ...    96506
Total number of batches                      ...     1515
Average number of points per batch           ...       63
Average number of grid points per atom       ...     6032
UseSFitting                                  ... on

Time for X-Grid setup             =    5.999 sec

--------------
SCF ITERATIONS
--------------
ITER       Energy         Delta-E        Max-DP      RMS-DP      [F,P]     Damp
               ***  Starting incremental Fock matrix formation  ***
  0  -1796.8495936506   0.000000000000 0.46399719  0.00947151  0.6581548 0.7000
  1  -1797.7590976408  -0.909503990157 0.34035261  0.00562484  0.2616097 0.7000
                               ***Turning on DIIS***
  2  -1798.2786681410  -0.519570500255 0.25449589  0.00352855  0.1726385 0.7000
  3  -1798.6300353935  -0.351367252498 0.19785306  0.00258194  0.1210843 0.7000
  4  -1798.8782339212  -0.248198527673 0.49104010  0.00641186  0.0846888 0.0000
  5  -1799.4643969469  -0.586163025648 0.02223617  0.00054911  0.0091047 0.0000
  6  -1799.4658620490  -0.001465102170 0.01346669  0.00024039  0.0035268 0.0000
                      *** Initiating the SOSCF procedure ***
                           *** Shutting down DIIS ***
                      *** Re-Reading the Fockian *** 
                      *** Removing any level shift *** 
ITER      Energy       Delta-E        Grad      Rot      Max-DP    RMS-DP
  7  -1799.46618037  -0.0003183166  0.001045  0.001045  0.008280  0.000145
               *** Restarting incremental Fock matrix formation ***
  8  -1799.46629476  -0.0001143940  0.000759  0.003484  0.005888  0.000138
  9  -1799.46633211  -0.0000373466  0.000228  0.001884  0.004450  0.000094
 10  -1799.46633585  -0.0000037446  0.000232  0.000557  0.001456  0.000034
 11  -1799.46633955  -0.0000037005  0.000027  0.000061  0.000371  0.000008
 12  -1799.46633958  -0.0000000301  0.000020  0.000038  0.000163  0.000004
                  ***Gradient check signals convergence***
              ***Rediagonalizing the Fockian in SOSCF/NRSCF***

               *****************************************************
               *                     SUCCESS                       *
               *           SCF CONVERGED AFTER  13 CYCLES          *
               *****************************************************

Old exchange energy                            =    -57.410085284 Eh
New exchange energy                            =    -57.410105534 Eh
Exchange energy change after final integration =     -0.000020250 Eh
Total energy after final integration           =  -1799.466359880 Eh
Final COS-X integration done in                =     8.437 sec

----------------
TOTAL SCF ENERGY
----------------

Total Energy       :        -1799.46635988 Eh          -48965.96903 eV

Components:
Nuclear Repulsion  :          893.96858114 Eh           24326.12181 eV
Electronic Energy  :        -2693.43494102 Eh          -73292.09084 eV
One Electron Energy:        -4273.95540393 Eh         -116300.23913 eV
Two Electron Energy:         1580.52046291 Eh           43008.14829 eV
Max COSX asymmetry :            0.00000550 Eh               0.00015 eV

Virial components:
Potential Energy   :        -3594.41812311 Eh          -97809.08965 eV
Kinetic Energy     :         1794.95176323 Eh           48843.12061 eV
Virial Ratio       :            2.00251516


DFT components:
N(Alpha)           :       53.999981951597 electrons
N(Beta)            :       53.999981951597 electrons
N(Total)           :      107.999963903195 electrons
E(X)               :      -76.504643305277 Eh       
E(C)               :       -5.198763718570 Eh       
E(XC)              :      -81.703407023846 Eh       
DFET-embed. en.    :        0.000000000000 Eh       

---------------
SCF CONVERGENCE
---------------

  Last Energy change         ...   -4.8365e-08  Tolerance :   1.0000e-08
  Last MAX-Density change    ...    4.4409e-15  Tolerance :   1.0000e-07
  Last RMS-Density change    ...    7.7976e-17  Tolerance :   5.0000e-09
  Last Orbital Gradient      ...    2.3941e-06  Tolerance :   1.0000e-05
  Last Orbital Rotation      ...    8.5212e-06  Tolerance :   1.0000e-05

             **** THE GBW FILE WAS UPDATED (pbeh-3c.gbw) ****
             **** DENSITY pbeh-3c.scfp WAS UPDATED ****
             **** ENERGY FILE WAS UPDATED (pbeh-3c.en.tmp) ****
             **** THE GBW FILE WAS UPDATED (pbeh-3c.gbw) ****
             **** DENSITY pbeh-3c.scfp WAS UPDATED ****
----------------
ORBITAL ENERGIES
----------------

  NO   OCC          E(Eh)            E(eV) 
   0   2.0000     -89.585020     -2437.7323 
   1   2.0000     -77.768446     -2116.1870 
   2   2.0000     -77.755660     -2115.8391 
   3   2.0000     -56.645371     -1541.3989 
   4   2.0000     -56.630985     -1541.0075 
   5   2.0000     -25.125130      -683.6895 
   6   2.0000     -19.551753      -532.0303 
   7   2.0000      -8.223598      -223.7755 
   8   2.0000      -7.020048      -191.0252 
   9   2.0000      -6.950044      -189.1203 
  10   2.0000      -6.839278      -186.1062 
  11   2.0000      -6.827882      -185.7961 
  12   2.0000      -6.114321      -166.3791 
  13   2.0000      -6.109991      -166.2613 
  14   2.0000      -6.108032      -166.2080 
  15   2.0000      -4.931451      -134.1916 
  16   2.0000      -4.928708      -134.1170 
  17   2.0000      -4.926891      -134.0675 
  18   2.0000      -4.918777      -133.8467 
  19   2.0000      -4.916960      -133.7973 
  20   2.0000      -4.916102      -133.7739 
  21   2.0000      -4.377349      -119.1137 
  22   2.0000      -4.367003      -118.8322 
  23   2.0000      -2.864196       -77.9387 
  24   2.0000      -2.864069       -77.9353 
  25   2.0000      -2.861762       -77.8725 
  26   2.0000      -2.858337       -77.7793 
  27   2.0000      -2.855861       -77.7119 
  28   2.0000      -2.852464       -77.6195 
  29   2.0000      -2.125076       -57.8263 
  30   2.0000      -1.334378       -36.3103 
  31   2.0000      -1.151085       -31.3226 
  32   2.0000      -0.827866       -22.5274 
  33   2.0000      -0.726918       -19.7804 
  34   2.0000      -0.705750       -19.2044 
  35   2.0000      -0.628451       -17.1010 
  36   2.0000      -0.600563       -16.3421 
  37   2.0000      -0.597156       -16.2494 
  38   2.0000      -0.563723       -15.3397 
  39   2.0000      -0.545070       -14.8321 
  40   2.0000      -0.524751       -14.2792 
  41   2.0000      -0.473891       -12.8952 
  42   2.0000      -0.466246       -12.6872 
  43   2.0000      -0.447817       -12.1857 
  44   2.0000      -0.437522       -11.9056 
  45   2.0000      -0.420722       -11.4484 
  46   2.0000      -0.378745       -10.3062 
  47   2.0000      -0.368951       -10.0397 
  48   2.0000      -0.354203        -9.6384 
  49   2.0000      -0.348258        -9.4766 
  50   2.0000      -0.305395        -8.3102 
  51   2.0000      -0.293985        -7.9998 
  52   2.0000      -0.272292        -7.4094 
  53   2.0000      -0.248644        -6.7659 
  54   0.0000      -0.048906        -1.3308 
  55   0.0000      -0.030856        -0.8396 
  56   0.0000      -0.019572        -0.5326 
  57   0.0000      -0.006185        -0.1683 
  58   0.0000       0.004984         0.1356 
  59   0.0000       0.027854         0.7579 
  60   0.0000       0.034478         0.9382 
  61   0.0000       0.040486         1.1017 
  62   0.0000       0.045453         1.2368 
  63   0.0000       0.068167         1.8549 
  64   0.0000       0.074396         2.0244 
  65   0.0000       0.080217         2.1828 
  66   0.0000       0.110814         3.0154 
  67   0.0000       0.121283         3.3003 
  68   0.0000       0.126141         3.4325 
  69   0.0000       0.144999         3.9456 
  70   0.0000       0.149611         4.0711 
  71   0.0000       0.164096         4.4653 
  72   0.0000       0.175922         4.7871 
  73   0.0000       0.188466         5.1284 
  74   0.0000       0.193049         5.2531 
  75   0.0000       0.227918         6.2020 
  76   0.0000       0.232468         6.3258 
  77   0.0000       0.258964         7.0468 
  78   0.0000       0.274384         7.4664 
  79   0.0000       0.305011         8.2998 
  80   0.0000       0.314303         8.5526 
  81   0.0000       0.334854         9.1118 
  82   0.0000       0.337930         9.1955 
  83   0.0000       0.349012         9.4971 
  84   0.0000       0.353289         9.6135 
  85   0.0000       0.386179        10.5085 
  86   0.0000       0.393809        10.7161 
  87   0.0000       0.402394        10.9497 
  88   0.0000       0.416961        11.3461 
  89   0.0000       0.424401        11.5485 
  90   0.0000       0.450403        12.2561 
  91   0.0000       0.470026        12.7901 
  92   0.0000       0.486138        13.2285 
  93   0.0000       0.494850        13.4655 
  94   0.0000       0.500114        13.6088 
  95   0.0000       0.507881        13.8201 
  96   0.0000       0.510013        13.8782 
  97   0.0000       0.528455        14.3800 
  98   0.0000       0.539825        14.6894 
  99   0.0000       0.549908        14.9638 
 100   0.0000       0.563402        15.3310 
 101   0.0000       0.570423        15.5220 
 102   0.0000       0.587326        15.9820 
 103   0.0000       0.593314        16.1449 
 104   0.0000       0.614697        16.7268 
 105   0.0000       0.625043        17.0083 
 106   0.0000       0.633530        17.2392 
 107   0.0000       0.643728        17.5167 
 108   0.0000       0.648260        17.6400 
 109   0.0000       0.662730        18.0338 
 110   0.0000       0.680521        18.5179 
 111   0.0000       0.691649        18.8207 
 112   0.0000       0.701266        19.0824 
 113   0.0000       0.714906        19.4536 
 114   0.0000       0.717471        19.5234 
 115   0.0000       0.726717        19.7750 
 116   0.0000       0.736972        20.0540 
 117   0.0000       0.775201        21.0943 
 118   0.0000       0.779433        21.2094 
 119   0.0000       0.812283        22.1034 
 120   0.0000       0.820540        22.3280 
 121   0.0000       0.836271        22.7561 
 122   0.0000       0.863606        23.4999 
 123   0.0000       0.883670        24.0459 
 124   0.0000       0.905695        24.6452 
 125   0.0000       0.909502        24.7488 
 126   0.0000       0.947798        25.7909 
 127   0.0000       0.985802        26.8250 
 128   0.0000       1.002066        27.2676 
 129   0.0000       1.021787        27.8042 
 130   0.0000       1.075081        29.2544 
 131   0.0000       1.090792        29.6820 
 132   0.0000       1.137498        30.9529 
 133   0.0000       1.168214        31.7887 
 134   0.0000       1.188477        32.3401 
 135   0.0000       1.229869        33.4664 
 136   0.0000       1.238329        33.6967 
 137   0.0000       1.244651        33.8687 
 138   0.0000       1.263935        34.3934 
 139   0.0000       1.286422        35.0053 
 140   0.0000       1.304281        35.4913 
 141   0.0000       1.316009        35.8104 
 142   0.0000       1.329793        36.1855 
 143   0.0000       1.349920        36.7332 
 144   0.0000       1.359031        36.9811 
 145   0.0000       1.393545        37.9203 
 146   0.0000       1.461077        39.7579 
 147   0.0000       1.516434        41.2643 
 148   0.0000       1.690091        45.9897 
 149   0.0000       1.776251        48.3343 
 150   0.0000       1.805853        49.1398 
 151   0.0000       1.840660        50.0869 
 152   0.0000       1.865831        50.7719 
 153   0.0000       1.892704        51.5031 
 154   0.0000       1.927322        52.4451 
 155   0.0000       1.960702        53.3534 
 156   0.0000       1.977672        53.8152 
 157   0.0000       2.074617        56.4532 
 158   0.0000       2.079685        56.5911 
 159   0.0000       2.156941        58.6934 
 160   0.0000       2.216534        60.3150 
 161   0.0000       2.287834        62.2551 
 162   0.0000       2.396859        65.2219 
 163   0.0000       2.398794        65.2745 
 164   0.0000       2.524643        68.6990 
 165   0.0000       2.548538        69.3493 
 166   0.0000       3.118792        84.8666 
 167   0.0000       9.201377       250.3822 
 168   0.0000       9.440938       256.9010 
 169   0.0000      25.432221       692.0459 
 170   0.0000      32.734912       890.7622 

                    ********************************
                    * MULLIKEN POPULATION ANALYSIS *
                    ********************************

-----------------------
MULLIKEN ATOMIC CHARGES
-----------------------
   0 H :    0.463394
   1 F :   -0.362939
   2 P :    0.021753
   3 Al:    0.562140
   4 H :    0.058090
   5 H :   -0.005933
   6 Al:    0.397878
   7 B :   -0.604010
   8 Li:    0.706739
   9 P :    0.011978
  10 O :   -0.794497
  11 H :   -0.048763
  12 H :   -0.034815
  13 B :    0.055878
  14 S :   -0.510047
  15 H :    0.083153
Sum of atomic charges:    0.0000000

--------------------------------
MULLIKEN REDUCED ORBITAL CHARGES
--------------------------------
  0 H s       :     0.536606  s :     0.536606
  1 F s       :     3.917241  s :     3.917241
      pz      :     1.857860  p :     5.428813
      px      :     1.727370
      py      :     1.843583
      dz2     :     0.004229  d :     0.016885
      dxz     :     0.003468
      dyz     :     0.002329
      dx2y2   :     0.002663
      dxy     :     0.004196
  2 P s       :     5.758716  s :     5.758716
      pz      :     2.704923  p :     9.079290
      px      :     3.491505
      py      :     2.882862
      dz2     :     0.037104  d :     0.140241
      dxz     :     0.031686
      dyz     :     0.022840
      dx2y2   :     0.033160
      dxy     :     0.015451
  3 Als       :     4.899874  s :     4.899874
      pz      :     2.580957  p :     7.314953
      px      :     2.341228
      py      :     2.392769
      dz2     :     0.035546  d :     0.223033
      dxz     :     0.048673
      dyz     :     0.049140
      dx2y2   :     0.051080
      dxy     :     0.038594
  4 H s       :     0.941910  s :     0.941910
  5 H s       :     1.005933  s :     1.005933
  6 Als       :     5.921574  s :     5.921574
      pz      :     2.244815  p :     6.595176
      px      :     2.158161
      py      :     2.192200
      dz2     :     0.024339  d :     0.085372
      dxz     :     0.017723
      dyz     :     0.017130
      dx2y2   :     0.015528
      dxy     :     0.010653
  7 B s       :     3.108838  s :     3.108838
      pz      :     0.688729  p :     2.471452
      px      :     0.985898
      py      :     0.796826
      dz2     :     0.005335  d :     0.023720
      dxz     :     0.006160
      dyz     :     0.004323
      dx2y2   :     0.006443
      dxy     :     0.001458
  8 Lis       :     2.110970  s :     2.110970
      pz      :     0.076842  p :     0.182292
      px      :     0.038621
      py      :     0.066829
  9 P s       :     5.848501  s :     5.848501
      pz      :     3.087427  p :     9.008244
      px      :     2.884996
      py      :     3.035821
      dz2     :     0.033262  d :     0.131277
      dxz     :     0.019678
      dyz     :     0.023502
      dx2y2   :     0.037737
      dxy     :     0.017098
 10 O s       :     3.844423  s :     3.844423
      pz      :     1.631369  p :     4.928079
      px      :     1.584410
      py      :     1.712299
      dz2     :     0.005520  d :     0.021994
      dxz     :     0.002875
      dyz     :     0.003585
      dx2y2   :     0.003008
      dxy     :     0.007006
 11 H s       :     1.048763  s :     1.048763
 12 H s       :     1.034815  s :     1.034815
 13 B s       :     2.930920  s :     2.930920
      pz      :     0.841954  p :     1.967855
      px      :     0.517283
      py      :     0.608619
      dz2     :     0.008171  d :     0.045347
      dxz     :     0.004623
      dyz     :     0.005813
      dx2y2   :     0.010660
      dxy     :     0.016080
 14 S s       :     5.927606  s :     5.927606
      pz      :     3.739149  p :    10.535834
      px      :     3.238518
      py      :     3.558167
      dz2     :     0.007368  d :     0.046607
      dxz     :     0.007653
      dyz     :     0.004084
      dx2y2   :     0.017520
      dxy     :     0.009982
 15 H s       :     0.916847  s :     0.916847


                     *******************************
                     * LOEWDIN POPULATION ANALYSIS *
                     *******************************

----------------------
LOEWDIN ATOMIC CHARGES
----------------------
   0 H :    0.341763
   1 F :   -0.200986
   2 P :    0.176842
   3 Al:    0.099286
   4 H :    0.023547
   5 H :    0.063115
   6 Al:    0.355957
   7 B :   -0.560657
   8 Li:    0.146359
   9 P :    0.253473
  10 O :   -0.479660
  11 H :   -0.058666
  12 H :    0.064777
  13 B :   -0.259952
  14 S :   -0.047945
  15 H :    0.082746

-------------------------------
LOEWDIN REDUCED ORBITAL CHARGES
-------------------------------
  0 H s       :     0.658237  s :     0.658237
  1 F s       :     3.722271  s :     3.722271
      pz      :     1.836517  p :     5.423756
      px      :     1.738723
      py      :     1.848516
      dz2     :     0.010781  d :     0.054959
      dxz     :     0.013440
      dyz     :     0.007678
      dx2y2   :     0.011389
      dxy     :     0.011670
  2 P s       :     5.483269  s :     5.483269
      pz      :     2.776771  p :     9.142091
      px      :     3.480618
      py      :     2.884701
      dz2     :     0.055533  d :     0.197798
      dxz     :     0.046287
      dyz     :     0.037130
      dx2y2   :     0.039758
      dxy     :     0.019091
  3 Als       :     4.869169  s :     4.869169
      pz      :     2.617646  p :     7.657671
      px      :     2.507250
      py      :     2.532775
      dz2     :     0.054960  d :     0.373874
      dxz     :     0.076718
      dyz     :     0.077741
      dx2y2   :     0.097004
      dxy     :     0.067451
  4 H s       :     0.976453  s :     0.976453
  5 H s       :     0.936885  s :     0.936885
  6 Als       :     5.619360  s :     5.619360
      pz      :     2.364152  p :     6.867149
      px      :     2.216465
      py      :     2.286532
      dz2     :     0.057719  d :     0.157533
      dxz     :     0.030217
      dyz     :     0.028414
      dx2y2   :     0.022780
      dxy     :     0.018402
  7 B s       :     2.749326  s :     2.749326
      pz      :     0.873838  p :     2.764006
      px      :     0.935169
      py      :     0.954999
      dz2     :     0.010893  d :     0.047324
      dxz     :     0.011584
      dyz     :     0.010346
      dx2y2   :     0.011396
      dxy     :     0.003105
  8 Lis       :     2.240050  s :     2.240050
      pz      :     0.246443  p :     0.613591
      px      :     0.181560
      py      :     0.185588
  9 P s       :     5.450218  s :     5.450218
      pz      :     3.113933  p :     9.121000
      px      :     2.946174
      py      :     3.060892
      dz2     :     0.043195  d :     0.175309
      dxz     :     0.026205
      dyz     :     0.032767
      dx2y2   :     0.050567
      dxy     :     0.022575
 10 O s       :     3.547949  s :     3.547949
      pz      :     1.632988  p :     4.896457
      px      :     1.569059
      py      :     1.694410
      dz2     :     0.008980  d :     0.035255
      dxz     :     0.006707
      dyz     :     0.005493
      dx2y2   :     0.004837
      dxy     :     0.009237
 11 H s       :     1.058666  s :     1.058666
 12 H s       :     0.935223  s :     0.935223
 13 B s       :     2.687455  s :     2.687455
      pz      :     0.964725  p :     2.463430
      px      :     0.687654
      py      :     0.811051
      dz2     :     0.018428  d :     0.109066
      dxz     :     0.011011
      dyz     :     0.015495
      dx2y2   :     0.025694
      dxy     :     0.038438
 14 S s       :     5.607021  s :     5.607021
      pz      :     3.649676  p :    10.388905
      px      :     3.231652
      py      :     3.507577
      dz2     :     0.008275  d :     0.052018
      dxz     :     0.008638
      dyz     :     0.003676
      dx2y2   :     0.020877
      dxy     :     0.010553
 15 H s       :     0.917254  s :     0.917254


                      *****************************
                      * MAYER POPULATION ANALYSIS *
                      *****************************

  NA   - Mulliken gross atomic population
  ZA   - Total nuclear charge
  QA   - Mulliken gross atomic charge
  VA   - Mayer's total valence
  BVA  - Mayer's bonded valence
  FA   - Mayer's free valence

  ATOM       NA         ZA         QA         VA         BVA        FA
  0 H      0.5366     1.0000     0.4634     0.7645     0.7645    -0.0000
  1 F      9.3629     9.0000    -0.3629     1.0721     1.0721    -0.0000
  2 P     14.9782    15.0000     0.0218     2.5728     2.5728    -0.0000
  3 Al    12.4379    13.0000     0.5621     3.1778     3.1778    -0.0000
  4 H      0.9419     1.0000     0.0581     0.9629     0.9629    -0.0000
  5 H      1.0059     1.0000    -0.0059     0.9663     0.9663    -0.0000
  6 Al    12.6021    13.0000     0.3979     0.9400     0.9400     0.0000
  7 B      5.6040     5.0000    -0.6040     3.7806     3.7806     0.0000
  8 Li     2.2933     3.0000     0.7067     0.5672     0.5672     0.0000
  9 P     14.9880    15.0000     0.0120     2.8146     2.8146     0.0000
 10 O      8.7945     8.0000    -0.7945     1.7978     1.7978    -0.0000
 11 H      1.0488     1.0000    -0.0488     0.9868     0.9868     0.0000
 12 H      1.0348     1.0000    -0.0348     0.9392     0.9392     0.0000
 13 B      4.9441     5.0000     0.0559     3.4300     3.4300     0.0000
 14 S     16.5100    16.0000    -0.5100     2.0638     2.0638    -0.0000
 15 H      0.9168     1.0000     0.0832     0.9758     0.9758     0.0000

  Mayer bond orders larger than 0.100000
B(  0-H , 10-O ) :   0.7186 B(  1-F ,  6-Al) :   0.2553 B(  1-F , 13-B ) :   0.7688 
B(  2-P ,  3-Al) :   0.8083 B(  2-P ,  4-H ) :   0.9331 B(  2-P , 10-O ) :   0.7503 
B(  3-Al,  9-P ) :   0.1448 B(  3-Al, 11-H ) :   0.9357 B(  3-Al, 12-H ) :   0.2016 
B(  3-Al, 13-B ) :   0.2233 B(  3-Al, 14-S ) :   0.7669 B(  5-H ,  7-B ) :   0.8875 
B(  6-Al,  7-B ) :   0.3106 B(  6-Al, 13-B ) :   0.1564 B(  7-B ,  9-P ) :   0.8562 
B(  7-B , 13-B ) :   0.7267 B(  7-B , 15-H ) :   0.8820 B(  8-Li, 10-O ) :   0.2365 
B(  8-Li, 14-S ) :   0.2290 B(  9-P , 13-B ) :   0.7825 B(  9-P , 14-S ) :   0.9032 
B( 12-H , 13-B ) :   0.7027 

-------
TIMINGS
-------

Total SCF time: 0 days 0 hours 2 min 45 sec 

Total time                  ....     165.956 sec
Sum of individual times     ....     156.613 sec  ( 94.4%)

Fock matrix formation       ....     129.156 sec  ( 77.8%)
  Split-RI-J                ....      13.865 sec  ( 10.7% of F)
  Chain of spheres X        ....      69.249 sec  ( 53.6% of F)
  XC integration            ....      26.573 sec  ( 20.6% of F)
    Basis function eval.    ....       6.877 sec  ( 25.9% of XC)
    Density eval.           ....       4.000 sec  ( 15.1% of XC)
    XC-Functional eval.     ....       2.551 sec  (  9.6% of XC)
    XC-Potential eval.      ....       2.956 sec  ( 11.1% of XC)
Diagonalization             ....       1.912 sec  (  1.2%)
Density matrix formation    ....       0.228 sec  (  0.1%)
Population analysis         ....       0.555 sec  (  0.3%)
Initial guess               ....       0.058 sec  (  0.0%)
Orbital Transformation      ....       0.000 sec  (  0.0%)
Orbital Orthonormalization  ....       0.000 sec  (  0.0%)
DIIS solution               ....       9.556 sec  (  5.8%)
SOSCF solution              ....       3.092 sec  (  1.9%)
Grid generation             ....      12.055 sec  (  7.3%)

Maximum memory used throughout the entire SCF-calculation: 59.0 MB


-------------------------------------------------------------------------------
                          DFT DISPERSION CORRECTION                            
                                                                               
                              DFTD3 V3.1  Rev 1                                
                          USING Becke-Johnson damping                          
-------------------------------------------------------------------------------
The PBEh-3c composite method is recognized
Using three-body term ABC
Active option DFTDOPT                   ...         4   

molecular C6(AA) [au] = 9372.104387 


            DFT-D V3
 parameters
 s6 scaling factor         :     1.0000 
 a1 scaling factor         :     0.4860 
 s8 scaling factor         :     0.0000 
 a2 scaling factor         :     4.5000 
 Damping factor alpha9(ATM):    16.0000 
 ad hoc parameters k1-k3   :    16.0000     1.3333    -4.0000 

 Edisp/kcal,au: -8.250549756675  -0.013148086551 
 E6   /kcal   :  -8.298840700 
 E8   /kcal   :  -0.000000000 
 E6(ABC)      :   0.048290943 
 % E8         :   0.000000000 
 % E6(ABC)    :  -0.585305761 

-------------------------   ----------------
Dispersion correction           -0.013148087
-------------------------   ----------------

------------------   -----------------
gCP correction             0.023481822
------------------   -----------------

-------------------------   --------------------
FINAL SINGLE POINT ENERGY     -1799.456026144280
-------------------------   --------------------


                            ***************************************
                            *     ORCA property calculations      *
                            ***************************************

                                    ---------------------
                                    Active property flags
                                    ---------------------
   (+) Dipole Moment


------------------------------------------------------------------------------
                       ORCA ELECTRIC PROPERTIES CALCULATION
------------------------------------------------------------------------------

Dipole Moment Calculation                       ... on
Quadrupole Moment Calculation                   ... off
Polarizability Calculation                      ... off
GBWName                                         ... pbeh-3c.gbw
Electron density                                ... pbeh-3c.scfp
The origin for moment calculation is the CENTER OF MASS  = ( 0.015855,  0.358786  0.590868)

-------------
DIPOLE MOMENT
-------------
                                X             Y             Z
Electronic contribution:      3.30951       2.11176      -0.62399
Nuclear contribution   :     -3.79469      -2.36498      -0.54935
                        -----------------------------------------
Total Dipole Moment    :     -0.48518      -0.25322      -1.17335
                        -----------------------------------------
Magnitude (a.u.)       :      1.29470
Magnitude (Debye)      :      3.29088



--------------------
Rotational spectrum 
--------------------
 
Rotational constants in cm-1:     0.030773     0.019051     0.015332 
Rotational constants in MHz :   922.543867   571.129312   459.645582 

 Dipole components along the rotational axes: 
x,y,z [a.u.] :     0.063238    -1.007518     0.810659 
x,y,z [Debye]:     0.160739    -2.560907     2.060530 

 

Timings for individual modules:

Sum of individual times         ...      170.127 sec (=   2.835 min)
GTO integral calculation        ...        3.020 sec (=   0.050 min)   1.8 %
SCF iterations                  ...      167.107 sec (=   2.785 min)  98.2 %
                             ****ORCA TERMINATED NORMALLY****
TOTAL RUN TIME: 0 days 0 hours 2 minutes 55 seconds 202 msec
