
                                 *****************
                                 * O   R   C   A *
                                 *****************

                                            #,                                       
                                            ###                                      
                                            ####                                     
                                            #####                                    
                                            ######                                   
                                           ########,                                 
                                     ,,################,,,,,                         
                               ,,#################################,,                 
                          ,,##########################################,,             
                       ,#########################################, ''#####,          
                    ,#############################################,,   '####,        
                  ,##################################################,,,,####,       
                ,###########''''           ''''###############################       
              ,#####''   ,,,,##########,,,,          '''####'''          '####       
            ,##' ,,,,###########################,,,                        '##       
           ' ,,###''''                  '''############,,,                           
         ,,##''                                '''############,,,,        ,,,,,,###''
      ,#''                                            '''#######################'''  
     '                                                          ''''####''''         
             ,#######,   #######,   ,#######,      ##                                
            ,#'     '#,  ##    ##  ,#'     '#,    #''#        ######   ,####,        
            ##       ##  ##   ,#'  ##            #'  '#       #        #'  '#        
            ##       ##  #######   ##           ,######,      #####,   #    #        
            '#,     ,#'  ##    ##  '#,     ,#' ,#      #,         ##   #,  ,#        
             '#######'   ##     ##  '#######'  #'      '#     #####' # '####'        



                  #######################################################
                  #                        -***-                        #
                  #          Department of theory and spectroscopy      #
                  #    Directorship and core code : Frank Neese         #
                  #        Max Planck Institute fuer Kohlenforschung    #
                  #                Kaiser Wilhelm Platz 1               #
                  #                 D-45470 Muelheim/Ruhr               #
                  #                      Germany                        #
                  #                                                     #
                  #                  All rights reserved                #
                  #                        -***-                        #
                  #######################################################


                         Program Version 5.0.3 -  RELEASE  -


 With contributions from (in alphabetic order):
   Daniel Aravena         : Magnetic Suceptibility
   Michael Atanasov       : Ab Initio Ligand Field Theory (pilot matlab implementation)
   Alexander A. Auer      : GIAO ZORA, VPT2 properties, NMR spectrum
   Ute Becker             : Parallelization
   Giovanni Bistoni       : ED, misc. LED, open-shell LED, HFLD
   Martin Brehm           : Molecular dynamics
   Dmytro Bykov           : SCF Hessian
   Vijay G. Chilkuri      : MRCI spin determinant printing, contributions to CSF-ICE
   Dipayan Datta          : RHF DLPNO-CCSD density
   Achintya Kumar Dutta   : EOM-CC, STEOM-CC
   Dmitry Ganyushin       : Spin-Orbit,Spin-Spin,Magnetic field MRCI
   Miquel Garcia          : C-PCM and meta-GGA Hessian, CC/C-PCM, Gaussian charge scheme
   Yang Guo               : DLPNO-NEVPT2, F12-NEVPT2, CIM, IAO-localization
   Andreas Hansen         : Spin unrestricted coupled pair/coupled cluster methods
   Benjamin Helmich-Paris : MC-RPA, TRAH-SCF, COSX integrals
   Lee Huntington         : MR-EOM, pCC
   Robert Izsak           : Overlap fitted RIJCOSX, COSX-SCS-MP3, EOM
   Marcus Kettner         : VPT2
   Christian Kollmar      : KDIIS, OOCD, Brueckner-CCSD(T), CCSD density, CASPT2, CASPT2-K
   Simone Kossmann        : Meta GGA functionals, TD-DFT gradient, OOMP2, MP2 Hessian
   Martin Krupicka        : Initial AUTO-CI
   Lucas Lang             : DCDCAS
   Marvin Lechner         : AUTO-CI (C++ implementation), FIC-MRCC
   Dagmar Lenk            : GEPOL surface, SMD
   Dimitrios Liakos       : Extrapolation schemes; Compound Job, initial MDCI parallelization
   Dimitrios Manganas     : Further ROCIS development; embedding schemes
   Dimitrios Pantazis     : SARC Basis sets
   Anastasios Papadopoulos: AUTO-CI, single reference methods and gradients
   Taras Petrenko         : DFT Hessian,TD-DFT gradient, ASA, ECA, R-Raman, ABS, FL, XAS/XES, NRVS
   Peter Pinski           : DLPNO-MP2, DLPNO-MP2 Gradient
   Christoph Reimann      : Effective Core Potentials
   Marius Retegan         : Local ZFS, SOC
   Christoph Riplinger    : Optimizer, TS searches, QM/MM, DLPNO-CCSD(T), (RO)-DLPNO pert. Triples
   Tobias Risthaus        : Range-separated hybrids, TD-DFT gradient, RPA, STAB
   Michael Roemelt        : Original ROCIS implementation
   Masaaki Saitow         : Open-shell DLPNO-CCSD energy and density
   Barbara Sandhoefer     : DKH picture change effects
   Avijit Sen             : IP-ROCIS
   Kantharuban Sivalingam : CASSCF convergence, NEVPT2, FIC-MRCI
   Bernardo de Souza      : ESD, SOC TD-DFT
   Georgi Stoychev        : AutoAux, RI-MP2 NMR, DLPNO-MP2 response
   Willem Van den Heuvel  : Paramagnetic NMR
   Boris Wezisla          : Elementary symmetry handling
   Frank Wennmohs         : Technical directorship


 We gratefully acknowledge several colleagues who have allowed us to
 interface, adapt or use parts of their codes:
   Stefan Grimme, W. Hujo, H. Kruse, P. Pracht,  : VdW corrections, initial TS optimization,
                  C. Bannwarth, S. Ehlert          DFT functionals, gCP, sTDA/sTD-DF
   Ed Valeev, F. Pavosevic, A. Kumar             : LibInt (2-el integral package), F12 methods
   Garnet Chan, S. Sharma, J. Yang, R. Olivares  : DMRG
   Ulf Ekstrom                                   : XCFun DFT Library
   Mihaly Kallay                                 : mrcc  (arbitrary order and MRCC methods)
   Jiri Pittner, Ondrej Demel                    : Mk-CCSD
   Frank Weinhold                                : gennbo (NPA and NBO analysis)
   Christopher J. Cramer and Donald G. Truhlar   : smd solvation model
   Lars Goerigk                                  : TD-DFT with DH, B97 family of functionals
   V. Asgeirsson, H. Jonsson                     : NEB implementation
   FAccTs GmbH                                   : IRC, NEB, NEB-TS, DLPNO-Multilevel, CI-OPT
                                                   MM, QMMM, 2- and 3-layer-ONIOM, Crystal-QMMM,
                                                   LR-CPCM, SF, NACMEs, symmetry and pop. for TD-DFT,
                                                   nearIR, NL-DFT gradient (VV10), updates on ESD,
                                                   ML-optimized integration grids
   S Lehtola, MJT Oliveira, MAL Marques          : LibXC Library
   Liviu Ungur et al                             : ANISO software


 Your calculation uses the libint2 library for the computation of 2-el integrals
 For citations please refer to: http://libint.valeyev.net

 Your ORCA version has been built with support for libXC version: 5.1.0
 For citations please refer to: https://tddft.org/programs/libxc/

 This ORCA versions uses:
   CBLAS   interface :  Fast vector & matrix operations
   LAPACKE interface :  Fast linear algebra routines
   SCALAPACK package :  Parallel linear algebra routines
   Shared memory     :  Shared parallel matrices
   BLAS/LAPACK       :  OpenBLAS 0.3.15  USE64BITINT DYNAMIC_ARCH NO_AFFINITY Haswell SINGLE_THREADED
        Core in use  :  Haswell
   Copyright (c) 2011-2014, The OpenBLAS Project




***************************************
The coordinates will be read from file: ts4h2o.xyz
***************************************


Your calculation utilizes the geometrical counterpoise correction gCP
Please cite in your paper:
H.Kruse, S. Grimme J.Chem.Phys., 136, (2012), 154101 
   

Your calculation utilizes the atom-pairwise dispersion correction
with the Becke-Johnson damping scheme (D3BJ)
Cite in your paper:
S.Grimme, S.Ehrlich, L.Goerigk, J Comput Chem, (2011), 32, 1456–1465 
S.Grimme, J.Antony, S.Ehrlich and H.Krieg, J.Chem.Phys., 132, (2010), 154104 
   

Your calculation employs the composite approach PBEh-3c.
Please cite in your paper:
S. Grimme, J. G. Brandenburg, C. Bannwarth, A. Hansen J.Chem.Phys., 143, (2015), 054107 
   

================================================================================

----- Orbital basis set information -----
Your calculation utilizes the basis: def2-mSVP

----- AuxJ basis set information -----
Your calculation utilizes the auxiliary basis: def2/J
   F. Weigend, Phys. Chem. Chem. Phys. 8, 1057 (2006).

================================================================================
                                        WARNINGS
                       Please study these warnings very carefully!
================================================================================


INFO   : the flag for use of the SHARK integral package has been found!

================================================================================
                                       INPUT FILE
================================================================================
NAME = pbeh-3c.inp
|  1> ! PBEh-3c def2/J TightSCF DefGrid3
|  2> 
|  3> %maxcore 60000
|  4> 
|  5> %pal
|  6> nprocs 4
|  7> end
|  8> 
|  9> *xyzfile 0 1 ts4h2o.xyz
| 10> 
| 11>                          ****END OF INPUT****
================================================================================

                       ****************************
                       * Single Point Calculation *
                       ****************************

---------------------------------
CARTESIAN COORDINATES (ANGSTROEM)
---------------------------------
  C      0.003984    1.128204    0.000000
  H      0.003757    2.214376    0.000000
  N      0.003984    0.466972    1.134022
  H     -0.009479   -0.657363    0.936814
  H      0.006918    0.973679    2.001139
  H     -0.009479   -0.657363   -0.936814
  O      0.067291   -1.720005    0.000000
  H     -0.616638   -2.393809    0.000000
  N      0.003984    0.466972   -1.134022
  H      0.006918    0.973679   -2.001139

----------------------------
CARTESIAN COORDINATES (A.U.)
----------------------------
  NO LB      ZA    FRAG     MASS         X           Y           Z
   0 C     6.0000    0    12.011    0.007529    2.131997    0.000000
   1 H     1.0000    0     1.008    0.007100    4.184564    0.000000
   2 N     7.0000    0    14.007    0.007529    0.882449    2.142991
   3 H     1.0000    0     1.008   -0.017913   -1.242236    1.770322
   4 H     1.0000    0     1.008    0.013073    1.839987    3.781605
   5 H     1.0000    0     1.008   -0.017913   -1.242236   -1.770322
   6 O     8.0000    0    15.999    0.127162   -3.250338    0.000000
   7 H     1.0000    0     1.008   -1.165277   -4.523643    0.000000
   8 N     7.0000    0    14.007    0.007529    0.882449   -2.142991
   9 H     1.0000    0     1.008    0.013073    1.839987   -3.781605

--------------------------------
INTERNAL COORDINATES (ANGSTROEM)
--------------------------------
 C      0   0   0     0.000000000000     0.00000000     0.00000000
 H      1   0   0     1.086172023720     0.00000000     0.00000000
 N      1   2   0     1.312719945117   120.24584873     0.00000000
 H      3   1   2     1.141578486070   110.29591220   179.26568312
 H      3   1   2     1.004316924030   119.45377916   359.79391023
 H      4   3   1     1.873628000000    99.94776465     0.36843384
 O      4   3   1     1.418704382054   148.33621044     7.26989395
 H      7   4   3     0.960088906017   119.15192756   231.56172711
 N      6   4   3     1.141578486070    99.94776465     0.00000000
 H      9   6   4     1.004316924030   130.24770321   180.23418925

---------------------------
INTERNAL COORDINATES (A.U.)
---------------------------
 C      0   0   0     0.000000000000     0.00000000     0.00000000
 H      1   0   0     2.052567659159     0.00000000     0.00000000
 N      1   2   0     2.480681186807   120.24584873     0.00000000
 H      3   1   2     2.157270699049   110.29591220   179.26568312
 H      3   1   2     1.897883938080   119.45377916   359.79391023
 H      4   3   1     3.540643796847    99.94776465     0.36843384
 O      4   3   1     2.680962747077   148.33621044     7.26989395
 H      7   4   3     1.814305096588   119.15192756   231.56172711
 N      6   4   3     2.157270699049    99.94776465     0.00000000
 H      9   6   4     1.897883938080   130.24770321   180.23418925

---------------------
BASIS SET INFORMATION
---------------------
There are 4 groups of distinct atoms

 Group   1 Type C   : 8s4p1d contracted to 4s2p1d pattern {5111/31/1}
 Group   2 Type H   : 4s contracted to 2s pattern {31}
 Group   3 Type N   : 8s4p1d contracted to 4s2p1d pattern {5111/31/1}
 Group   4 Type O   : 8s4p1d contracted to 4s2p1d pattern {5111/31/1}

Atom   0C    basis set group =>   1
Atom   1H    basis set group =>   2
Atom   2N    basis set group =>   3
Atom   3H    basis set group =>   2
Atom   4H    basis set group =>   2
Atom   5H    basis set group =>   2
Atom   6O    basis set group =>   4
Atom   7H    basis set group =>   2
Atom   8N    basis set group =>   3
Atom   9H    basis set group =>   2
---------------------------------
AUXILIARY/J BASIS SET INFORMATION
---------------------------------
There are 4 groups of distinct atoms

 Group   1 Type C   : 12s5p4d2f1g contracted to 6s4p3d1f1g pattern {711111/2111/211/2/1}
 Group   2 Type H   : 5s2p1d contracted to 3s1p1d pattern {311/2/1}
 Group   3 Type N   : 12s5p4d2f1g contracted to 6s4p3d1f1g pattern {711111/2111/211/2/1}
 Group   4 Type O   : 12s5p4d2f1g contracted to 6s4p3d1f1g pattern {711111/2111/211/2/1}

Atom   0C    basis set group =>   1
Atom   1H    basis set group =>   2
Atom   2N    basis set group =>   3
Atom   3H    basis set group =>   2
Atom   4H    basis set group =>   2
Atom   5H    basis set group =>   2
Atom   6O    basis set group =>   4
Atom   7H    basis set group =>   2
Atom   8N    basis set group =>   3
Atom   9H    basis set group =>   2


           ************************************************************
           *        Program running with 4 parallel MPI-processes     *
           *              working on a common directory               *
           ************************************************************
------------------------------------------------------------------------------
                           ORCA GTO INTEGRAL CALCULATION
                           -- RI-GTO INTEGRALS CHOSEN --
------------------------------------------------------------------------------
------------------------------------------------------------------------------
                   ___                                                        
                  /   \      - P O W E R E D   B Y -                         
                 /     \                                                     
                 |  |  |   _    _      __       _____    __    __             
                 |  |  |  | |  | |    /  \     |  _  \  |  |  /  |          
                  \  \/   | |  | |   /    \    | | | |  |  | /  /          
                 / \  \   | |__| |  /  /\  \   | |_| |  |  |/  /          
                |  |  |   |  __  | /  /__\  \  |    /   |      \           
                |  |  |   | |  | | |   __   |  |    \   |  |\   \          
                \     /   | |  | | |  |  |  |  | |\  \  |  | \   \       
                 \___/    |_|  |_| |__|  |__|  |_| \__\ |__|  \__/        
                                                                              
                      - O R C A' S   B I G   F R I E N D -                    
                                      &                                       
                       - I N T E G R A L  F E E D E R -                       
                                                                              
 v1 FN, 2020, v2 2021                                                         
------------------------------------------------------------------------------


Reading SHARK input file pbeh-3c.SHARKINP.tmp ... ok
----------------------
SHARK INTEGRAL PACKAGE
----------------------

Number of atoms                             ...     10
Number of basis functions                   ...     72
Number of shells                            ...     40
Maximum angular momentum                    ...      2
Integral batch strategy                     ... SHARK/LIBINT Hybrid
RI-J (if used) integral strategy            ... SPLIT-RIJ (Revised 2003 algorithm where possible)
Printlevel                                  ...      1
Contraction scheme used                     ... SEGMENTED contraction
Coulomb Range Separation                    ... NOT USED
Exchange Range Separation                   ... NOT USED
Finite Nucleus Model                        ... NOT USED
Auxiliary Coulomb fitting basis             ... AVAILABLE
   # of basis functions in Aux-J            ...    262
   # of shells in Aux-J                     ...     90
   Maximum angular momentum in Aux-J        ...      4
Auxiliary J/K fitting basis                 ... NOT available
Auxiliary Correlation fitting basis         ... NOT available
Auxiliary 'external' fitting basis          ... NOT available
Integral threshold                          ...     2.500000e-11
Primitive cut-off                           ...     2.500000e-12
Primitive pair pre-selection threshold      ...     2.500000e-12

Calculating pre-screening integrals         ... done (  0.1 sec) Dimension = 40
Organizing shell pair data                  ... done (  0.0 sec)
Shell pair information
Total number of shell pairs                 ...       820
Shell pairs after pre-screening             ...       798
Total number of primitive shell pairs       ...      2996
Primitive shell pairs kept                  ...      2265
          la=0 lb=0:    384 shell pairs
          la=1 lb=0:    224 shell pairs
          la=1 lb=1:     36 shell pairs
          la=2 lb=0:    112 shell pairs
          la=2 lb=1:     32 shell pairs
          la=2 lb=2:     10 shell pairs

Calculating one electron integrals          ... done (  0.0 sec)
Calculating RI/J V-Matrix + Cholesky decomp.... done (  0.1 sec)
Calculating Nuclear repulsion               ... done (  0.0 sec) ENN=    130.586060652252 Eh

SHARK setup successfully completed in   0.7 seconds

Maximum memory used throughout the entire GTOINT-calculation: 9.5 MB


           ************************************************************
           *        Program running with 4 parallel MPI-processes     *
           *              working on a common directory               *
           ************************************************************
-------------------------------------------------------------------------------
                                 ORCA SCF
-------------------------------------------------------------------------------

------------
SCF SETTINGS
------------
Hamiltonian:
 Density Functional     Method          .... DFT(GTOs)
 Exchange Functional    Exchange        .... PBE
   PBE kappa parameter   XKappa         ....  1.024500
   PBE mue parameter    XMuePBE         ....  0.123457
 Correlation Functional Correlation     .... PBE
   PBE beta parameter  CBetaPBE         ....  0.030000
 LDA part of GGA corr.  LDAOpt          .... PW91-LDA
 Gradients option       PostSCFGGA      .... off
 Hybrid DFT is turned on
   Fraction HF Exchange ScalHFX         ....  0.420000
   Scaling of DF-GGA-X  ScalDFX         ....  0.580000
   Scaling of DF-GGA-C  ScalDFC         ....  1.000000
   Scaling of DF-LDA-C  ScalLDAC        ....  1.000000
   Perturbative correction              ....  0.000000
   Density functional embedding theory  .... OFF
 RI-approximation to the Coulomb term is turned on
   Number of AuxJ basis functions       .... 262
   RIJ-ON(X) (HFX calculated with O(N)) .... on
   Number of AuxJ basis functions       .... 262
   RIJ-COSX (HFX calculated with COS-X)).... on


General Settings:
 Integral files         IntName         .... pbeh-3c
 Hartree-Fock type      HFTyp           .... RHF
 Total Charge           Charge          ....    0
 Multiplicity           Mult            ....    1
 Number of Electrons    NEL             ....   34
 Basis Dimension        Dim             ....   72
 Nuclear Repulsion      ENuc            ....    130.5860606523 Eh

Convergence Acceleration:
 DIIS                   CNVDIIS         .... on
   Start iteration      DIISMaxIt       ....    12
   Startup error        DIISStart       ....  0.200000
   # of expansion vecs  DIISMaxEq       ....     5
   Bias factor          DIISBfac        ....   1.050
   Max. coefficient     DIISMaxC        ....  10.000
 Trust-Rad. Augm. Hess. CNVTRAH         .... auto
   Auto Start mean grad. ratio tolernc. ....  1.125000
   Auto Start start iteration           ....    20
   Auto Start num. interpolation iter.  ....    10
   Max. Number of Micro iterations      ....    16
   Max. Number of Macro iterations      .... Maxiter - #DIIS iter
   Number of Davidson start vectors     ....     2
   Converg. threshold I  (grad. norm)   ....   1.000e-05
   Converg. threshold II (energy diff.) ....   1.000e-08
   Grad. Scal. Fac. for Micro threshold ....   0.100
   Minimum threshold for Micro iter.    ....   0.010
   NR start threshold (gradient norm)   ....   0.001
   Initial trust radius                 ....   0.400
   Minimum AH scaling param. (alpha)    ....   1.000
   Maximum AH scaling param. (alpha)    .... 1000.000
   Orbital update algorithm             .... Taylor
   White noise on init. David. guess    .... on
   Maximum white noise                  ....   0.010
   Quad. conv. algorithm                .... NR
   COSX micro iterations for RIJONX calc.... off
 SOSCF                  CNVSOSCF        .... on
   Start iteration      SOSCFMaxIt      ....   150
   Startup grad/error   SOSCFStart      ....  0.003300
 Level Shifting         CNVShift        .... on
   Level shift para.    LevelShift      ....    0.2500
   Turn off err/grad.   ShiftErr        ....    0.0010
 Zerner damping         CNVZerner       .... off
 Static damping         CNVDamp         .... on
   Fraction old density DampFac         ....    0.7000
   Max. Damping (<1)    DampMax         ....    0.9800
   Min. Damping (>=0)   DampMin         ....    0.0000
   Turn off err/grad.   DampErr         ....    0.1000
 Fernandez-Rico         CNVRico         .... off

SCF Procedure:
 Maximum # iterations   MaxIter         ....   125
 SCF integral mode      SCFMode         .... Direct
   Integral package                     .... SHARK and LIBINT hybrid scheme
 Reset frequency        DirectResetFreq ....    20
 Integral Threshold     Thresh          ....  2.500e-11 Eh
 Primitive CutOff       TCut            ....  2.500e-12 Eh

Convergence Tolerance:
 Convergence Check Mode ConvCheckMode   .... Total+1el-Energy
 Convergence forced     ConvForced      .... 0
 Energy Change          TolE            ....  1.000e-08 Eh
 1-El. energy change                    ....  1.000e-05 Eh
 Orbital Gradient       TolG            ....  1.000e-05
 Orbital Rotation angle TolX            ....  1.000e-05
 DIIS Error             TolErr          ....  5.000e-07


Diagonalization of the overlap matrix:
Smallest eigenvalue                        ... 7.846e-03
Time for diagonalization                   ...    0.002 sec
Threshold for overlap eigenvalues          ... 1.000e-08
Number of eigenvalues below threshold      ... 0
Time for construction of square roots      ...    0.158 sec
Total time needed                          ...    0.160 sec

--------------------------------
INITIAL GUESS: MINIMAL BASIS EHT
--------------------------------
The minimal basis has 26 functions
EHT matrix was diagonalized
Basis set overlap was calculated now projecting the orbitals
Using GuessMode=FMatrix for the initial guess
C*T matrix was formed
Effective Fockian was calculated
Effective Fockian was diagonalized
Initial density was built
                      ------------------
                      INITIAL GUESS DONE
                      ------------------
-------------------
DFT GRID GENERATION
-------------------

General Integration Accuracy     IntAcc      ... 4.959
Radial Grid Type                 RadialGrid  ... OptM3 with GC (2021)
Angular Grid (max. ang.)         AngularGrid ... 6 (Lebedev-590)
Angular grid pruning method      GridPruning ... 4 (adaptive)
Weight generation scheme         WeightScheme... Becke
Basis function cutoff            BFCut       ... 1.0000e-11
Integration weight cutoff        WCut        ... 1.0000e-14
Angular grids for H and He will be reduced by one unit
Partially contracted basis set               ... off
Rotationally invariant grid construction     ... off

Total number of grid points                  ...   110812
Total number of batches                      ...     1737
Average number of points per batch           ...       63
Average number of grid points per atom       ...    11081
Time for grid setup =    1.611 sec

--------------------
COSX GRID GENERATION
--------------------

GRIDX 1
-------
General Integration Accuracy     IntAcc      ... 4.020
Radial Grid Type                 RadialGrid  ... OptM3 with GC (2021)
Angular Grid (max. ang.)         AngularGrid ... 2 (Lebedev-110)
Angular grid pruning method      GridPruning ... 4 (adaptive)
Weight generation scheme         WeightScheme... Becke
Basis function cutoff            BFCut       ... 1.0000e-11
Integration weight cutoff        WCut        ... 1.0000e-14
Angular grids for H and He will be reduced by one unit
Partially contracted basis set               ... on
Rotationally invariant grid construction     ... off

Total number of grid points                  ...    12001
Total number of batches                      ...      193
Average number of points per batch           ...       62
Average number of grid points per atom       ...     1200
UseSFitting                                  ... on

GRIDX 2
-------
General Integration Accuracy     IntAcc      ... 4.338
Radial Grid Type                 RadialGrid  ... OptM3 with GC (2021)
Angular Grid (max. ang.)         AngularGrid ... 3 (Lebedev-194)
Angular grid pruning method      GridPruning ... 4 (adaptive)
Weight generation scheme         WeightScheme... Becke
Basis function cutoff            BFCut       ... 1.0000e-11
Integration weight cutoff        WCut        ... 1.0000e-14
Angular grids for H and He will be reduced by one unit
Partially contracted basis set               ... on
Rotationally invariant grid construction     ... off

Total number of grid points                  ...    26432
Total number of batches                      ...      418
Average number of points per batch           ...       63
Average number of grid points per atom       ...     2643
UseSFitting                                  ... on

GRIDX 3
-------
General Integration Accuracy     IntAcc      ... 4.871
Radial Grid Type                 RadialGrid  ... OptM3 with GC (2021)
Angular Grid (max. ang.)         AngularGrid ... 4 (Lebedev-302)
Angular grid pruning method      GridPruning ... 4 (adaptive)
Weight generation scheme         WeightScheme... Becke
Basis function cutoff            BFCut       ... 1.0000e-11
Integration weight cutoff        WCut        ... 1.0000e-14
Angular grids for H and He will be reduced by one unit
Partially contracted basis set               ... on
Rotationally invariant grid construction     ... off

Total number of grid points                  ...    52015
Total number of batches                      ...      817
Average number of points per batch           ...       63
Average number of grid points per atom       ...     5202
UseSFitting                                  ... on

Time for X-Grid setup             =    1.366 sec

--------------
SCF ITERATIONS
--------------
ITER       Energy         Delta-E        Max-DP      RMS-DP      [F,P]     Damp
               ***  Starting incremental Fock matrix formation  ***
  0   -225.0851337625   0.000000000000 0.20935097  0.00990588  0.6430538 0.7000
  1   -225.4103766596  -0.325242897065 0.11348842  0.00574458  0.2865845 0.7000
  2   -225.5698457352  -0.159469075614 0.05698638  0.00292568  0.2014937 0.7000
                               ***Turning on DIIS***
  3   -225.6760845974  -0.106238862215 0.03590489  0.00173683  0.1411544 0.7000
  4   -225.7523171288  -0.076232531387 0.07917595  0.00422586  0.0999385 0.0000
  5   -225.9347017782  -0.182384649409 0.01522968  0.00069480  0.0162970 0.0000
  6   -225.9351073389  -0.000405560700 0.00474642  0.00022734  0.0104023 0.0000
                      *** Initiating the SOSCF procedure ***
                           *** Shutting down DIIS ***
                      *** Re-Reading the Fockian *** 
                      *** Removing any level shift *** 
ITER      Energy       Delta-E        Grad      Rot      Max-DP    RMS-DP
  7   -225.93529169  -0.0001843487  0.001066  0.001066  0.001185  0.000091
               *** Restarting incremental Fock matrix formation ***
  8   -225.93534536  -0.0000536771  0.000604  0.001954  0.001234  0.000074
  9   -225.93534816  -0.0000028000  0.000477  0.000850  0.000743  0.000042
 10   -225.93534998  -0.0000018189  0.000055  0.000226  0.000166  0.000010
 11   -225.93535004  -0.0000000605  0.000012  0.000016  0.000030  0.000001
 12   -225.93535005  -0.0000000011  0.000010  0.000013  0.000014  0.000001
                  ***Gradient check signals convergence***
              ***Rediagonalizing the Fockian in SOSCF/NRSCF***

               *****************************************************
               *                     SUCCESS                       *
               *           SCF CONVERGED AFTER  13 CYCLES          *
               *****************************************************

Old exchange energy                            =    -12.070750891 Eh
New exchange energy                            =    -12.070752432 Eh
Exchange energy change after final integration =     -0.000001541 Eh
Total energy after final integration           =   -225.935351587 Eh
Final COS-X integration done in                =     1.071 sec

----------------
TOTAL SCF ENERGY
----------------

Total Energy       :         -225.93535159 Eh           -6148.01348 eV

Components:
Nuclear Repulsion  :          130.58606065 Eh            3553.42736 eV
Electronic Energy  :         -356.52141224 Eh           -9701.44084 eV
One Electron Energy:         -566.96628231 Eh          -15427.93688 eV
Two Electron Energy:          210.44487007 Eh            5726.49604 eV
Max COSX asymmetry :            0.00000154 Eh               0.00004 eV

Virial components:
Potential Energy   :         -450.28585703 Eh          -12252.90110 eV
Kinetic Energy     :          224.35050544 Eh            6104.88762 eV
Virial Ratio       :            2.00706415


DFT components:
N(Alpha)           :       17.000001209699 electrons
N(Beta)            :       17.000001209699 electrons
N(Total)           :       34.000002419399 electrons
E(X)               :      -16.080427545779 Eh       
E(C)               :       -1.499512269604 Eh       
E(XC)              :      -17.579939815383 Eh       
DFET-embed. en.    :        0.000000000000 Eh       

---------------
SCF CONVERGENCE
---------------

  Last Energy change         ...   -7.7176e-10  Tolerance :   1.0000e-08
  Last MAX-Density change    ...    7.7716e-16  Tolerance :   1.0000e-07
  Last RMS-Density change    ...    4.9595e-17  Tolerance :   5.0000e-09
  Last Orbital Gradient      ...    8.4845e-07  Tolerance :   1.0000e-05
  Last Orbital Rotation      ...    1.4523e-06  Tolerance :   1.0000e-05

             **** THE GBW FILE WAS UPDATED (pbeh-3c.gbw) ****
             **** DENSITY pbeh-3c.scfp WAS UPDATED ****
             **** ENERGY FILE WAS UPDATED (pbeh-3c.en.tmp) ****
             **** THE GBW FILE WAS UPDATED (pbeh-3c.gbw) ****
             **** DENSITY pbeh-3c.scfp WAS UPDATED ****
----------------
ORBITAL ENERGIES
----------------

  NO   OCC          E(Eh)            E(eV) 
   0   2.0000     -19.379245      -527.3361 
   1   2.0000     -14.637812      -398.3151 
   2   2.0000     -14.637801      -398.3148 
   3   2.0000     -10.542788      -286.8839 
   4   2.0000      -1.072965       -29.1969 
   5   2.0000      -0.970710       -26.4144 
   6   2.0000      -0.960192       -26.1282 
   7   2.0000      -0.699116       -19.0239 
   8   2.0000      -0.655525       -17.8377 
   9   2.0000      -0.559562       -15.2265 
  10   2.0000      -0.537586       -14.6285 
  11   2.0000      -0.503893       -13.7116 
  12   2.0000      -0.452488       -12.3128 
  13   2.0000      -0.381160       -10.3719 
  14   2.0000      -0.300260        -8.1705 
  15   2.0000      -0.279167        -7.5965 
  16   2.0000      -0.265520        -7.2252 
  17   0.0000       0.043921         1.1952 
  18   0.0000       0.123214         3.3528 
  19   0.0000       0.167463         4.5569 
  20   0.0000       0.189408         5.1540 
  21   0.0000       0.219946         5.9850 
  22   0.0000       0.278376         7.5750 
  23   0.0000       0.333339         9.0706 
  24   0.0000       0.386563        10.5189 
  25   0.0000       0.388144        10.5619 
  26   0.0000       0.519200        14.1282 
  27   0.0000       0.583435        15.8761 
  28   0.0000       0.604533        16.4502 
  29   0.0000       0.649863        17.6837 
  30   0.0000       0.715162        19.4605 
  31   0.0000       0.756693        20.5907 
  32   0.0000       0.816319        22.2132 
  33   0.0000       0.823390        22.4056 
  34   0.0000       0.902582        24.5605 
  35   0.0000       0.955019        25.9874 
  36   0.0000       0.988658        26.9028 
  37   0.0000       1.042259        28.3613 
  38   0.0000       1.075882        29.2762 
  39   0.0000       1.082827        29.4652 
  40   0.0000       1.133285        30.8383 
  41   0.0000       1.294418        35.2229 
  42   0.0000       1.351433        36.7744 
  43   0.0000       1.384097        37.6632 
  44   0.0000       1.415981        38.5308 
  45   0.0000       1.466712        39.9113 
  46   0.0000       1.471614        40.0447 
  47   0.0000       1.487085        40.4656 
  48   0.0000       1.616974        44.0001 
  49   0.0000       1.729299        47.0566 
  50   0.0000       1.790329        48.7173 
  51   0.0000       1.865224        50.7553 
  52   0.0000       1.876907        51.0732 
  53   0.0000       1.919309        52.2270 
  54   0.0000       1.923413        52.3387 
  55   0.0000       1.989579        54.1392 
  56   0.0000       2.026919        55.1553 
  57   0.0000       2.199367        59.8478 
  58   0.0000       2.294885        62.4470 
  59   0.0000       2.340463        63.6872 
  60   0.0000       2.401908        65.3592 
  61   0.0000       2.531261        68.8791 
  62   0.0000       2.533401        68.9374 
  63   0.0000       2.568624        69.8958 
  64   0.0000       2.671994        72.7087 
  65   0.0000       2.725422        74.1625 
  66   0.0000       2.858367        77.7801 
  67   0.0000       3.007393        81.8353 
  68   0.0000      13.698910       372.7663 
  69   0.0000      19.203341       522.5495 
  70   0.0000      19.220272       523.0102 
  71   0.0000      25.481279       693.3809 

                    ********************************
                    * MULLIKEN POPULATION ANALYSIS *
                    ********************************

-----------------------
MULLIKEN ATOMIC CHARGES
-----------------------
   0 C :    0.253529
   1 H :    0.229798
   2 N :   -0.758974
   3 H :    0.439789
   4 H :    0.350360
   5 H :    0.439789
   6 O :   -0.918824
   7 H :    0.373149
   8 N :   -0.758974
   9 H :    0.350360
Sum of atomic charges:   -0.0000000

--------------------------------
MULLIKEN REDUCED ORBITAL CHARGES
--------------------------------
  0 C s       :     3.070276  s :     3.070276
      pz      :     0.827278  p :     2.588201
      px      :     0.807305
      py      :     0.953618
      dz2     :     0.024002  d :     0.087994
      dxz     :     0.026159
      dyz     :     0.024312
      dx2y2   :     0.009924
      dxy     :     0.003598
  1 H s       :     0.770202  s :     0.770202
  2 N s       :     3.599123  s :     3.599123
      pz      :     1.149715  p :     4.132551
      px      :     1.577722
      py      :     1.405114
      dz2     :     0.006528  d :     0.027300
      dxz     :     0.003286
      dyz     :     0.011845
      dx2y2   :     0.003439
      dxy     :     0.002203
  3 H s       :     0.560211  s :     0.560211
  4 H s       :     0.649640  s :     0.649640
  5 H s       :     0.560211  s :     0.560211
  6 O s       :     3.842984  s :     3.842984
      pz      :     1.754828  p :     5.061531
      px      :     1.717649
      py      :     1.589055
      dz2     :     0.002858  d :     0.014309
      dxz     :     0.001089
      dyz     :     0.000880
      dx2y2   :     0.001238
      dxy     :     0.008244
  7 H s       :     0.626851  s :     0.626851
  8 N s       :     3.599123  s :     3.599123
      pz      :     1.149715  p :     4.132551
      px      :     1.577722
      py      :     1.405114
      dz2     :     0.006528  d :     0.027300
      dxz     :     0.003286
      dyz     :     0.011845
      dx2y2   :     0.003439
      dxy     :     0.002203
  9 H s       :     0.649640  s :     0.649640


                     *******************************
                     * LOEWDIN POPULATION ANALYSIS *
                     *******************************

----------------------
LOEWDIN ATOMIC CHARGES
----------------------
   0 C :    0.055742
   1 H :    0.119413
   2 N :   -0.382237
   3 H :    0.317547
   4 H :    0.245638
   5 H :    0.317547
   6 O :   -0.801767
   7 H :    0.264715
   8 N :   -0.382237
   9 H :    0.245638

-------------------------------
LOEWDIN REDUCED ORBITAL CHARGES
-------------------------------
  0 C s       :     2.875101  s :     2.875101
      pz      :     0.999767  p :     2.875909
      px      :     0.816843
      py      :     1.059299
      dz2     :     0.058092  d :     0.193248
      dxz     :     0.054276
      dyz     :     0.057674
      dx2y2   :     0.017367
      dxy     :     0.005839
  1 H s       :     0.880587  s :     0.880587
  2 N s       :     3.198429  s :     3.198429
      pz      :     1.189293  p :     4.124246
      px      :     1.554292
      py      :     1.380661
      dz2     :     0.016907  d :     0.059562
      dxz     :     0.006150
      dyz     :     0.027067
      dx2y2   :     0.006723
      dxy     :     0.002715
  3 H s       :     0.682453  s :     0.682453
  4 H s       :     0.754362  s :     0.754362
  5 H s       :     0.682453  s :     0.682453
  6 O s       :     3.661182  s :     3.661182
      pz      :     1.795951  p :     5.118541
      px      :     1.727877
      py      :     1.594713
      dz2     :     0.004190  d :     0.022044
      dxz     :     0.001147
      dyz     :     0.003353
      dx2y2   :     0.002204
      dxy     :     0.011151
  7 H s       :     0.735285  s :     0.735285
  8 N s       :     3.198429  s :     3.198429
      pz      :     1.189293  p :     4.124246
      px      :     1.554292
      py      :     1.380661
      dz2     :     0.016907  d :     0.059562
      dxz     :     0.006150
      dyz     :     0.027067
      dx2y2   :     0.006723
      dxy     :     0.002715
  9 H s       :     0.754362  s :     0.754362


                      *****************************
                      * MAYER POPULATION ANALYSIS *
                      *****************************

  NA   - Mulliken gross atomic population
  ZA   - Total nuclear charge
  QA   - Mulliken gross atomic charge
  VA   - Mayer's total valence
  BVA  - Mayer's bonded valence
  FA   - Mayer's free valence

  ATOM       NA         ZA         QA         VA         BVA        FA
  0 C      5.7465     6.0000     0.2535     3.8285     3.8285    -0.0000
  1 H      0.7702     1.0000     0.2298     0.8983     0.8983     0.0000
  2 N      7.7590     7.0000    -0.7590     2.9202     2.9202     0.0000
  3 H      0.5602     1.0000     0.4398     0.8170     0.8170    -0.0000
  4 H      0.6496     1.0000     0.3504     0.8555     0.8555     0.0000
  5 H      0.5602     1.0000     0.4398     0.8170     0.8170    -0.0000
  6 O      8.9188     8.0000    -0.9188     1.5928     1.5928    -0.0000
  7 H      0.6269     1.0000     0.3731     0.8390     0.8390    -0.0000
  8 N      7.7590     7.0000    -0.7590     2.9202     2.9202    -0.0000
  9 H      0.6496     1.0000     0.3504     0.8555     0.8555    -0.0000

  Mayer bond orders larger than 0.100000
B(  0-C ,  1-H ) :   0.9055 B(  0-C ,  2-N ) :   1.4635 B(  0-C ,  8-N ) :   1.4635 
B(  2-N ,  3-H ) :   0.4573 B(  2-N ,  4-H ) :   0.8378 B(  2-N ,  8-N ) :   0.1404 
B(  3-H ,  6-O ) :   0.3537 B(  5-H ,  6-O ) :   0.3537 B(  5-H ,  8-N ) :   0.4573 
B(  6-O ,  7-H ) :   0.8269 B(  8-N ,  9-H ) :   0.8378 

-------
TIMINGS
-------

Total SCF time: 0 days 0 hours 0 min 47 sec 

Total time                  ....      47.305 sec
Sum of individual times     ....      42.277 sec  ( 89.4%)

Fock matrix formation       ....      36.594 sec  ( 77.4%)
  Split-RI-J                ....       3.980 sec  ( 10.9% of F)
  Chain of spheres X        ....       8.155 sec  ( 22.3% of F)
  XC integration            ....      13.340 sec  ( 36.5% of F)
    Basis function eval.    ....       1.228 sec  (  9.2% of XC)
    Density eval.           ....       1.005 sec  (  7.5% of XC)
    XC-Functional eval.     ....       0.834 sec  (  6.3% of XC)
    XC-Potential eval.      ....       0.400 sec  (  3.0% of XC)
Diagonalization             ....       0.197 sec  (  0.4%)
Density matrix formation    ....       0.172 sec  (  0.4%)
Population analysis         ....       0.992 sec  (  2.1%)
Initial guess               ....       0.007 sec  (  0.0%)
Orbital Transformation      ....       0.000 sec  (  0.0%)
Orbital Orthonormalization  ....       0.000 sec  (  0.0%)
DIIS solution               ....       0.784 sec  (  1.7%)
SOSCF solution              ....       0.554 sec  (  1.2%)
Grid generation             ....       2.976 sec  (  6.3%)

Maximum memory used throughout the entire SCF-calculation: 47.9 MB


-------------------------------------------------------------------------------
                          DFT DISPERSION CORRECTION                            
                                                                               
                              DFTD3 V3.1  Rev 1                                
                          USING Becke-Johnson damping                          
-------------------------------------------------------------------------------
The PBEh-3c composite method is recognized
Using three-body term ABC
Active option DFTDOPT                   ...         4   

molecular C6(AA) [au] = 722.340296 


            DFT-D V3
 parameters
 s6 scaling factor         :     1.0000 
 a1 scaling factor         :     0.4860 
 s8 scaling factor         :     0.0000 
 a2 scaling factor         :     4.5000 
 Damping factor alpha9(ATM):    16.0000 
 ad hoc parameters k1-k3   :    16.0000     1.3333    -4.0000 

 Edisp/kcal,au: -2.076436687460  -0.003309012137 
 E6   /kcal   :  -2.079502589 
 E8   /kcal   :  -0.000000000 
 E6(ABC)      :   0.003065901 
 % E8         :   0.000000000 
 % E6(ABC)    :  -0.147652057 

-------------------------   ----------------
Dispersion correction           -0.003309012
-------------------------   ----------------

------------------   -----------------
gCP correction             0.023317842
------------------   -----------------

-------------------------   --------------------
FINAL SINGLE POINT ENERGY      -225.915342757649
-------------------------   --------------------


                            ***************************************
                            *     ORCA property calculations      *
                            ***************************************

                                    ---------------------
                                    Active property flags
                                    ---------------------
   (+) Dipole Moment


------------------------------------------------------------------------------
                       ORCA ELECTRIC PROPERTIES CALCULATION
------------------------------------------------------------------------------

Dipole Moment Calculation                       ... on
Quadrupole Moment Calculation                   ... off
Polarizability Calculation                      ... off
GBWName                                         ... pbeh-3c.gbw
Electron density                                ... pbeh-3c.scfp
The origin for moment calculation is the CENTER OF MASS  = ( 0.018665, -0.013058  0.000000)

-------------
DIPOLE MOMENT
-------------
                                X             Y             Z
Electronic contribution:      0.10588       1.23929      -0.00000
Nuclear contribution   :     -0.63461       0.44396      -0.00000
                        -----------------------------------------
Total Dipole Moment    :     -0.52873       1.68325      -0.00000
                        -----------------------------------------
Magnitude (a.u.)       :      1.76434
Magnitude (Debye)      :      4.48459



--------------------
Rotational spectrum 
--------------------
 
Rotational constants in cm-1:     0.363949     0.203896     0.131601 
Rotational constants in MHz : 10910.927625  6112.653889  3945.311628 

 Dipole components along the rotational axes: 
x,y,z [a.u.] :     1.684658    -0.000000     0.524226 
x,y,z [Debye]:     4.282060    -0.000000     1.332477 

 

Timings for individual modules:

Sum of individual times         ...       49.173 sec (=   0.820 min)
GTO integral calculation        ...        1.229 sec (=   0.020 min)   2.5 %
SCF iterations                  ...       47.944 sec (=   0.799 min)  97.5 %
                             ****ORCA TERMINATED NORMALLY****
TOTAL RUN TIME: 0 days 0 hours 1 minutes 3 seconds 854 msec
