
                                 *****************
                                 * O   R   C   A *
                                 *****************

                                            #,                                       
                                            ###                                      
                                            ####                                     
                                            #####                                    
                                            ######                                   
                                           ########,                                 
                                     ,,################,,,,,                         
                               ,,#################################,,                 
                          ,,##########################################,,             
                       ,#########################################, ''#####,          
                    ,#############################################,,   '####,        
                  ,##################################################,,,,####,       
                ,###########''''           ''''###############################       
              ,#####''   ,,,,##########,,,,          '''####'''          '####       
            ,##' ,,,,###########################,,,                        '##       
           ' ,,###''''                  '''############,,,                           
         ,,##''                                '''############,,,,        ,,,,,,###''
      ,#''                                            '''#######################'''  
     '                                                          ''''####''''         
             ,#######,   #######,   ,#######,      ##                                
            ,#'     '#,  ##    ##  ,#'     '#,    #''#        ######   ,####,        
            ##       ##  ##   ,#'  ##            #'  '#       #        #'  '#        
            ##       ##  #######   ##           ,######,      #####,   #    #        
            '#,     ,#'  ##    ##  '#,     ,#' ,#      #,         ##   #,  ,#        
             '#######'   ##     ##  '#######'  #'      '#     #####' # '####'        



                  #######################################################
                  #                        -***-                        #
                  #          Department of theory and spectroscopy      #
                  #    Directorship and core code : Frank Neese         #
                  #        Max Planck Institute fuer Kohlenforschung    #
                  #                Kaiser Wilhelm Platz 1               #
                  #                 D-45470 Muelheim/Ruhr               #
                  #                      Germany                        #
                  #                                                     #
                  #                  All rights reserved                #
                  #                        -***-                        #
                  #######################################################


                         Program Version 5.0.3 -  RELEASE  -


 With contributions from (in alphabetic order):
   Daniel Aravena         : Magnetic Suceptibility
   Michael Atanasov       : Ab Initio Ligand Field Theory (pilot matlab implementation)
   Alexander A. Auer      : GIAO ZORA, VPT2 properties, NMR spectrum
   Ute Becker             : Parallelization
   Giovanni Bistoni       : ED, misc. LED, open-shell LED, HFLD
   Martin Brehm           : Molecular dynamics
   Dmytro Bykov           : SCF Hessian
   Vijay G. Chilkuri      : MRCI spin determinant printing, contributions to CSF-ICE
   Dipayan Datta          : RHF DLPNO-CCSD density
   Achintya Kumar Dutta   : EOM-CC, STEOM-CC
   Dmitry Ganyushin       : Spin-Orbit,Spin-Spin,Magnetic field MRCI
   Miquel Garcia          : C-PCM and meta-GGA Hessian, CC/C-PCM, Gaussian charge scheme
   Yang Guo               : DLPNO-NEVPT2, F12-NEVPT2, CIM, IAO-localization
   Andreas Hansen         : Spin unrestricted coupled pair/coupled cluster methods
   Benjamin Helmich-Paris : MC-RPA, TRAH-SCF, COSX integrals
   Lee Huntington         : MR-EOM, pCC
   Robert Izsak           : Overlap fitted RIJCOSX, COSX-SCS-MP3, EOM
   Marcus Kettner         : VPT2
   Christian Kollmar      : KDIIS, OOCD, Brueckner-CCSD(T), CCSD density, CASPT2, CASPT2-K
   Simone Kossmann        : Meta GGA functionals, TD-DFT gradient, OOMP2, MP2 Hessian
   Martin Krupicka        : Initial AUTO-CI
   Lucas Lang             : DCDCAS
   Marvin Lechner         : AUTO-CI (C++ implementation), FIC-MRCC
   Dagmar Lenk            : GEPOL surface, SMD
   Dimitrios Liakos       : Extrapolation schemes; Compound Job, initial MDCI parallelization
   Dimitrios Manganas     : Further ROCIS development; embedding schemes
   Dimitrios Pantazis     : SARC Basis sets
   Anastasios Papadopoulos: AUTO-CI, single reference methods and gradients
   Taras Petrenko         : DFT Hessian,TD-DFT gradient, ASA, ECA, R-Raman, ABS, FL, XAS/XES, NRVS
   Peter Pinski           : DLPNO-MP2, DLPNO-MP2 Gradient
   Christoph Reimann      : Effective Core Potentials
   Marius Retegan         : Local ZFS, SOC
   Christoph Riplinger    : Optimizer, TS searches, QM/MM, DLPNO-CCSD(T), (RO)-DLPNO pert. Triples
   Tobias Risthaus        : Range-separated hybrids, TD-DFT gradient, RPA, STAB
   Michael Roemelt        : Original ROCIS implementation
   Masaaki Saitow         : Open-shell DLPNO-CCSD energy and density
   Barbara Sandhoefer     : DKH picture change effects
   Avijit Sen             : IP-ROCIS
   Kantharuban Sivalingam : CASSCF convergence, NEVPT2, FIC-MRCI
   Bernardo de Souza      : ESD, SOC TD-DFT
   Georgi Stoychev        : AutoAux, RI-MP2 NMR, DLPNO-MP2 response
   Willem Van den Heuvel  : Paramagnetic NMR
   Boris Wezisla          : Elementary symmetry handling
   Frank Wennmohs         : Technical directorship


 We gratefully acknowledge several colleagues who have allowed us to
 interface, adapt or use parts of their codes:
   Stefan Grimme, W. Hujo, H. Kruse, P. Pracht,  : VdW corrections, initial TS optimization,
                  C. Bannwarth, S. Ehlert          DFT functionals, gCP, sTDA/sTD-DF
   Ed Valeev, F. Pavosevic, A. Kumar             : LibInt (2-el integral package), F12 methods
   Garnet Chan, S. Sharma, J. Yang, R. Olivares  : DMRG
   Ulf Ekstrom                                   : XCFun DFT Library
   Mihaly Kallay                                 : mrcc  (arbitrary order and MRCC methods)
   Jiri Pittner, Ondrej Demel                    : Mk-CCSD
   Frank Weinhold                                : gennbo (NPA and NBO analysis)
   Christopher J. Cramer and Donald G. Truhlar   : smd solvation model
   Lars Goerigk                                  : TD-DFT with DH, B97 family of functionals
   V. Asgeirsson, H. Jonsson                     : NEB implementation
   FAccTs GmbH                                   : IRC, NEB, NEB-TS, DLPNO-Multilevel, CI-OPT
                                                   MM, QMMM, 2- and 3-layer-ONIOM, Crystal-QMMM,
                                                   LR-CPCM, SF, NACMEs, symmetry and pop. for TD-DFT,
                                                   nearIR, NL-DFT gradient (VV10), updates on ESD,
                                                   ML-optimized integration grids
   S Lehtola, MJT Oliveira, MAL Marques          : LibXC Library
   Liviu Ungur et al                             : ANISO software


 Your calculation uses the libint2 library for the computation of 2-el integrals
 For citations please refer to: http://libint.valeyev.net

 Your ORCA version has been built with support for libXC version: 5.1.0
 For citations please refer to: https://tddft.org/programs/libxc/

 This ORCA versions uses:
   CBLAS   interface :  Fast vector & matrix operations
   LAPACKE interface :  Fast linear algebra routines
   SCALAPACK package :  Parallel linear algebra routines
   Shared memory     :  Shared parallel matrices
   BLAS/LAPACK       :  OpenBLAS 0.3.15  USE64BITINT DYNAMIC_ARCH NO_AFFINITY Haswell SINGLE_THREADED
        Core in use  :  Haswell
   Copyright (c) 2011-2014, The OpenBLAS Project




***************************************
The coordinates will be read from file: 63B.xyz
***************************************


Your calculation utilizes the geometrical counterpoise correction gCP
Please cite in your paper:
H.Kruse, S. Grimme J.Chem.Phys., 136, (2012), 154101 
   

Your calculation utilizes the atom-pairwise dispersion correction
with the Becke-Johnson damping scheme (D3BJ)
Cite in your paper:
S.Grimme, S.Ehrlich, L.Goerigk, J Comput Chem, (2011), 32, 1456–1465 
S.Grimme, J.Antony, S.Ehrlich and H.Krieg, J.Chem.Phys., 132, (2010), 154104 
   

Your calculation employs the composite approach PBEh-3c.
Please cite in your paper:
S. Grimme, J. G. Brandenburg, C. Bannwarth, A. Hansen J.Chem.Phys., 143, (2015), 054107 
   

================================================================================

----- Orbital basis set information -----
Your calculation utilizes the basis: def2-mSVP

----- AuxJ basis set information -----
Your calculation utilizes the auxiliary basis: def2/J
   F. Weigend, Phys. Chem. Chem. Phys. 8, 1057 (2006).

================================================================================
                                        WARNINGS
                       Please study these warnings very carefully!
================================================================================


INFO   : the flag for use of the SHARK integral package has been found!

================================================================================
                                       INPUT FILE
================================================================================
NAME = pbeh-3c.inp
|  1> ! PBEh-3c def2/J TightSCF DefGrid3
|  2> 
|  3> %maxcore 60000
|  4> 
|  5> %pal
|  6> nprocs 4
|  7> end
|  8> 
|  9> *xyzfile 0 1 63B.xyz
| 10> 
| 11>                          ****END OF INPUT****
================================================================================

                       ****************************
                       * Single Point Calculation *
                       ****************************

---------------------------------
CARTESIAN COORDINATES (ANGSTROEM)
---------------------------------
  C      0.509494   -0.255997    0.108916
  O      1.704987   -0.092046    0.185431
  O     -0.070007   -1.467401    0.308354
  H      0.664443   -2.068510    0.501392
  C     -0.512390    0.787935   -0.211765
  H     -0.034096    1.758881   -0.258588
  H     -0.965190    0.554739   -1.174473
  H     -1.297241    0.782398    0.540734

----------------------------
CARTESIAN COORDINATES (A.U.)
----------------------------
  NO LB      ZA    FRAG     MASS         X           Y           Z
   0 C     6.0000    0    12.011    0.962804   -0.483763    0.205821
   1 O     8.0000    0    15.999    3.221958   -0.173941    0.350415
   2 O     8.0000    0    15.999   -0.132295   -2.772987    0.582705
   3 H     1.0000    0     1.008    1.255616   -3.908917    0.947494
   4 C     6.0000    0    12.011   -0.968277    1.488981   -0.400179
   5 H     1.0000    0     1.008   -0.064431    3.323804   -0.488661
   6 H     1.0000    0     1.008   -1.823945    1.048304   -2.219433
   7 H     1.0000    0     1.008   -2.451430    1.478519    1.021839

--------------------------------
INTERNAL COORDINATES (ANGSTROEM)
--------------------------------
 C      0   0   0     0.000000000000     0.00000000     0.00000000
 O      1   0   0     1.209105884955     0.00000000     0.00000000
 O      1   2   0     1.357608033143   122.25893616     0.00000000
 H      3   1   2     0.968510709400   105.03425091   359.96273658
 C      1   2   3     1.495619110121   126.47571961   180.36472901
 H      5   1   2     1.083371787968   109.46189026   353.55675572
 H      5   1   2     1.089135019875   108.91307048   113.50110854
 H      5   1   2     1.087325660524   109.95249914   231.77064836

---------------------------
INTERNAL COORDINATES (A.U.)
---------------------------
 C      0   0   0     0.000000000000     0.00000000     0.00000000
 O      1   0   0     2.284878989477     0.00000000     0.00000000
 O      1   2   0     2.565507379851   122.25893616     0.00000000
 H      3   1   2     1.830219998536   105.03425091   359.96273658
 C      1   2   3     2.826310518787   126.47571961   180.36472901
 H      5   1   2     2.047275980477   109.46189026   353.55675572
 H      5   1   2     2.058166910427   108.91307048   113.50110854
 H      5   1   2     2.054747716775   109.95249914   231.77064836

---------------------
BASIS SET INFORMATION
---------------------
There are 3 groups of distinct atoms

 Group   1 Type C   : 8s4p1d contracted to 4s2p1d pattern {5111/31/1}
 Group   2 Type O   : 8s4p1d contracted to 4s2p1d pattern {5111/31/1}
 Group   3 Type H   : 4s contracted to 2s pattern {31}

Atom   0C    basis set group =>   1
Atom   1O    basis set group =>   2
Atom   2O    basis set group =>   2
Atom   3H    basis set group =>   3
Atom   4C    basis set group =>   1
Atom   5H    basis set group =>   3
Atom   6H    basis set group =>   3
Atom   7H    basis set group =>   3
---------------------------------
AUXILIARY/J BASIS SET INFORMATION
---------------------------------
There are 3 groups of distinct atoms

 Group   1 Type C   : 12s5p4d2f1g contracted to 6s4p3d1f1g pattern {711111/2111/211/2/1}
 Group   2 Type O   : 12s5p4d2f1g contracted to 6s4p3d1f1g pattern {711111/2111/211/2/1}
 Group   3 Type H   : 5s2p1d contracted to 3s1p1d pattern {311/2/1}

Atom   0C    basis set group =>   1
Atom   1O    basis set group =>   2
Atom   2O    basis set group =>   2
Atom   3H    basis set group =>   3
Atom   4C    basis set group =>   1
Atom   5H    basis set group =>   3
Atom   6H    basis set group =>   3
Atom   7H    basis set group =>   3


           ************************************************************
           *        Program running with 4 parallel MPI-processes     *
           *              working on a common directory               *
           ************************************************************
------------------------------------------------------------------------------
                           ORCA GTO INTEGRAL CALCULATION
                           -- RI-GTO INTEGRALS CHOSEN --
------------------------------------------------------------------------------
------------------------------------------------------------------------------
                   ___                                                        
                  /   \      - P O W E R E D   B Y -                         
                 /     \                                                     
                 |  |  |   _    _      __       _____    __    __             
                 |  |  |  | |  | |    /  \     |  _  \  |  |  /  |          
                  \  \/   | |  | |   /    \    | | | |  |  | /  /          
                 / \  \   | |__| |  /  /\  \   | |_| |  |  |/  /          
                |  |  |   |  __  | /  /__\  \  |    /   |      \           
                |  |  |   | |  | | |   __   |  |    \   |  |\   \          
                \     /   | |  | | |  |  |  |  | |\  \  |  | \   \       
                 \___/    |_|  |_| |__|  |__|  |_| \__\ |__|  \__/        
                                                                              
                      - O R C A' S   B I G   F R I E N D -                    
                                      &                                       
                       - I N T E G R A L  F E E D E R -                       
                                                                              
 v1 FN, 2020, v2 2021                                                         
------------------------------------------------------------------------------


Reading SHARK input file pbeh-3c.SHARKINP.tmp ... ok
----------------------
SHARK INTEGRAL PACKAGE
----------------------

Number of atoms                             ...      8
Number of basis functions                   ...     68
Number of shells                            ...     36
Maximum angular momentum                    ...      2
Integral batch strategy                     ... SHARK/LIBINT Hybrid
RI-J (if used) integral strategy            ... SPLIT-RIJ (Revised 2003 algorithm where possible)
Printlevel                                  ...      1
Contraction scheme used                     ... SEGMENTED contraction
Coulomb Range Separation                    ... NOT USED
Exchange Range Separation                   ... NOT USED
Finite Nucleus Model                        ... NOT USED
Auxiliary Coulomb fitting basis             ... AVAILABLE
   # of basis functions in Aux-J            ...    240
   # of shells in Aux-J                     ...     80
   Maximum angular momentum in Aux-J        ...      4
Auxiliary J/K fitting basis                 ... NOT available
Auxiliary Correlation fitting basis         ... NOT available
Auxiliary 'external' fitting basis          ... NOT available
Integral threshold                          ...     2.500000e-11
Primitive cut-off                           ...     2.500000e-12
Primitive pair pre-selection threshold      ...     2.500000e-12

Calculating pre-screening integrals         ... done (  0.0 sec) Dimension = 36
Organizing shell pair data                  ... done (  0.3 sec)
Shell pair information
Total number of shell pairs                 ...       666
Shell pairs after pre-screening             ...       650
Total number of primitive shell pairs       ...      2410
Primitive shell pairs kept                  ...      1865
          la=0 lb=0:    284 shell pairs
          la=1 lb=0:    192 shell pairs
          la=1 lb=1:     36 shell pairs
          la=2 lb=0:     96 shell pairs
          la=2 lb=1:     32 shell pairs
          la=2 lb=2:     10 shell pairs

Calculating one electron integrals          ... done (  0.0 sec)
Calculating RI/J V-Matrix + Cholesky decomp.... done (  0.5 sec)
Calculating Nuclear repulsion               ... done (  0.1 sec) ENN=    121.235670507855 Eh

SHARK setup successfully completed in   2.1 seconds

Maximum memory used throughout the entire GTOINT-calculation: 9.4 MB


           ************************************************************
           *        Program running with 4 parallel MPI-processes     *
           *              working on a common directory               *
           ************************************************************
-------------------------------------------------------------------------------
                                 ORCA SCF
-------------------------------------------------------------------------------

------------
SCF SETTINGS
------------
Hamiltonian:
 Density Functional     Method          .... DFT(GTOs)
 Exchange Functional    Exchange        .... PBE
   PBE kappa parameter   XKappa         ....  1.024500
   PBE mue parameter    XMuePBE         ....  0.123457
 Correlation Functional Correlation     .... PBE
   PBE beta parameter  CBetaPBE         ....  0.030000
 LDA part of GGA corr.  LDAOpt          .... PW91-LDA
 Gradients option       PostSCFGGA      .... off
 Hybrid DFT is turned on
   Fraction HF Exchange ScalHFX         ....  0.420000
   Scaling of DF-GGA-X  ScalDFX         ....  0.580000
   Scaling of DF-GGA-C  ScalDFC         ....  1.000000
   Scaling of DF-LDA-C  ScalLDAC        ....  1.000000
   Perturbative correction              ....  0.000000
   Density functional embedding theory  .... OFF
 RI-approximation to the Coulomb term is turned on
   Number of AuxJ basis functions       .... 240
   RIJ-ON(X) (HFX calculated with O(N)) .... on
   Number of AuxJ basis functions       .... 240
   RIJ-COSX (HFX calculated with COS-X)).... on


General Settings:
 Integral files         IntName         .... pbeh-3c
 Hartree-Fock type      HFTyp           .... RHF
 Total Charge           Charge          ....    0
 Multiplicity           Mult            ....    1
 Number of Electrons    NEL             ....   32
 Basis Dimension        Dim             ....   68
 Nuclear Repulsion      ENuc            ....    121.2356705079 Eh

Convergence Acceleration:
 DIIS                   CNVDIIS         .... on
   Start iteration      DIISMaxIt       ....    12
   Startup error        DIISStart       ....  0.200000
   # of expansion vecs  DIISMaxEq       ....     5
   Bias factor          DIISBfac        ....   1.050
   Max. coefficient     DIISMaxC        ....  10.000
 Trust-Rad. Augm. Hess. CNVTRAH         .... auto
   Auto Start mean grad. ratio tolernc. ....  1.125000
   Auto Start start iteration           ....    20
   Auto Start num. interpolation iter.  ....    10
   Max. Number of Micro iterations      ....    16
   Max. Number of Macro iterations      .... Maxiter - #DIIS iter
   Number of Davidson start vectors     ....     2
   Converg. threshold I  (grad. norm)   ....   1.000e-05
   Converg. threshold II (energy diff.) ....   1.000e-08
   Grad. Scal. Fac. for Micro threshold ....   0.100
   Minimum threshold for Micro iter.    ....   0.010
   NR start threshold (gradient norm)   ....   0.001
   Initial trust radius                 ....   0.400
   Minimum AH scaling param. (alpha)    ....   1.000
   Maximum AH scaling param. (alpha)    .... 1000.000
   Orbital update algorithm             .... Taylor
   White noise on init. David. guess    .... on
   Maximum white noise                  ....   0.010
   Quad. conv. algorithm                .... NR
   COSX micro iterations for RIJONX calc.... off
 SOSCF                  CNVSOSCF        .... on
   Start iteration      SOSCFMaxIt      ....   150
   Startup grad/error   SOSCFStart      ....  0.003300
 Level Shifting         CNVShift        .... on
   Level shift para.    LevelShift      ....    0.2500
   Turn off err/grad.   ShiftErr        ....    0.0010
 Zerner damping         CNVZerner       .... off
 Static damping         CNVDamp         .... on
   Fraction old density DampFac         ....    0.7000
   Max. Damping (<1)    DampMax         ....    0.9800
   Min. Damping (>=0)   DampMin         ....    0.0000
   Turn off err/grad.   DampErr         ....    0.1000
 Fernandez-Rico         CNVRico         .... off

SCF Procedure:
 Maximum # iterations   MaxIter         ....   125
 SCF integral mode      SCFMode         .... Direct
   Integral package                     .... SHARK and LIBINT hybrid scheme
 Reset frequency        DirectResetFreq ....    20
 Integral Threshold     Thresh          ....  2.500e-11 Eh
 Primitive CutOff       TCut            ....  2.500e-12 Eh

Convergence Tolerance:
 Convergence Check Mode ConvCheckMode   .... Total+1el-Energy
 Convergence forced     ConvForced      .... 0
 Energy Change          TolE            ....  1.000e-08 Eh
 1-El. energy change                    ....  1.000e-05 Eh
 Orbital Gradient       TolG            ....  1.000e-05
 Orbital Rotation angle TolX            ....  1.000e-05
 DIIS Error             TolErr          ....  5.000e-07


Diagonalization of the overlap matrix:
Smallest eigenvalue                        ... 7.016e-03
Time for diagonalization                   ...    0.001 sec
Threshold for overlap eigenvalues          ... 1.000e-08
Number of eigenvalues below threshold      ... 0
Time for construction of square roots      ...    0.002 sec
Total time needed                          ...    0.003 sec

--------------------------------
INITIAL GUESS: MINIMAL BASIS EHT
--------------------------------
The minimal basis has 24 functions
EHT matrix was diagonalized
Basis set overlap was calculated now projecting the orbitals
Using GuessMode=FMatrix for the initial guess
C*T matrix was formed
Effective Fockian was calculated
Effective Fockian was diagonalized
Initial density was built
                      ------------------
                      INITIAL GUESS DONE
                      ------------------
-------------------
DFT GRID GENERATION
-------------------

General Integration Accuracy     IntAcc      ... 4.959
Radial Grid Type                 RadialGrid  ... OptM3 with GC (2021)
Angular Grid (max. ang.)         AngularGrid ... 6 (Lebedev-590)
Angular grid pruning method      GridPruning ... 4 (adaptive)
Weight generation scheme         WeightScheme... Becke
Basis function cutoff            BFCut       ... 1.0000e-11
Integration weight cutoff        WCut        ... 1.0000e-14
Angular grids for H and He will be reduced by one unit
Partially contracted basis set               ... off
Rotationally invariant grid construction     ... off

Total number of grid points                  ...    93499
Total number of batches                      ...     1466
Average number of points per batch           ...       63
Average number of grid points per atom       ...    11687
Time for grid setup =    2.297 sec

--------------------
COSX GRID GENERATION
--------------------

GRIDX 1
-------
General Integration Accuracy     IntAcc      ... 4.020
Radial Grid Type                 RadialGrid  ... OptM3 with GC (2021)
Angular Grid (max. ang.)         AngularGrid ... 2 (Lebedev-110)
Angular grid pruning method      GridPruning ... 4 (adaptive)
Weight generation scheme         WeightScheme... Becke
Basis function cutoff            BFCut       ... 1.0000e-11
Integration weight cutoff        WCut        ... 1.0000e-14
Angular grids for H and He will be reduced by one unit
Partially contracted basis set               ... on
Rotationally invariant grid construction     ... off

Total number of grid points                  ...    10552
Total number of batches                      ...      168
Average number of points per batch           ...       62
Average number of grid points per atom       ...     1319
UseSFitting                                  ... on

GRIDX 2
-------
General Integration Accuracy     IntAcc      ... 4.338
Radial Grid Type                 RadialGrid  ... OptM3 with GC (2021)
Angular Grid (max. ang.)         AngularGrid ... 3 (Lebedev-194)
Angular grid pruning method      GridPruning ... 4 (adaptive)
Weight generation scheme         WeightScheme... Becke
Basis function cutoff            BFCut       ... 1.0000e-11
Integration weight cutoff        WCut        ... 1.0000e-14
Angular grids for H and He will be reduced by one unit
Partially contracted basis set               ... on
Rotationally invariant grid construction     ... off

Total number of grid points                  ...    23307
Total number of batches                      ...      369
Average number of points per batch           ...       63
Average number of grid points per atom       ...     2913
UseSFitting                                  ... on

GRIDX 3
-------
General Integration Accuracy     IntAcc      ... 4.871
Radial Grid Type                 RadialGrid  ... OptM3 with GC (2021)
Angular Grid (max. ang.)         AngularGrid ... 4 (Lebedev-302)
Angular grid pruning method      GridPruning ... 4 (adaptive)
Weight generation scheme         WeightScheme... Becke
Basis function cutoff            BFCut       ... 1.0000e-11
Integration weight cutoff        WCut        ... 1.0000e-14
Angular grids for H and He will be reduced by one unit
Partially contracted basis set               ... on
Rotationally invariant grid construction     ... off

Total number of grid points                  ...    44816
Total number of batches                      ...      705
Average number of points per batch           ...       63
Average number of grid points per atom       ...     5602
UseSFitting                                  ... on

Time for X-Grid setup             =    3.256 sec

--------------
SCF ITERATIONS
--------------
ITER       Energy         Delta-E        Max-DP      RMS-DP      [F,P]     Damp
               ***  Starting incremental Fock matrix formation  ***
  0   -227.7686381694   0.000000000000 0.18953806  0.00997451  0.5414014 0.7000
  1   -228.0993627827  -0.330724613238 0.10684480  0.00542050  0.2969796 0.7000
  2   -228.2535480424  -0.154185259784 0.04602321  0.00275516  0.2098687 0.7000
                               ***Turning on DIIS***
  3   -228.3588802409  -0.105332198491 0.02773050  0.00173771  0.1476521 0.7000
  4   -228.4347558632  -0.075875622244 0.02030519  0.00126883  0.1036542 0.7000
  5   -228.4883398888  -0.053584025625 0.04889755  0.00312807  0.0727550 0.0000
  6   -228.6150426114  -0.126702722610 0.00412615  0.00019250  0.0041355 0.0000
                      *** Initiating the SOSCF procedure ***
                           *** Shutting down DIIS ***
                      *** Re-Reading the Fockian *** 
                      *** Removing any level shift *** 
ITER      Energy       Delta-E        Grad      Rot      Max-DP    RMS-DP
  7   -228.61509844  -0.0000558277  0.000590  0.000590  0.001452  0.000084
               *** Restarting incremental Fock matrix formation ***
  8   -228.61511201  -0.0000135712  0.000560  0.001328  0.001453  0.000060
  9   -228.61511328  -0.0000012737  0.000449  0.000334  0.000708  0.000039
 10   -228.61511515  -0.0000018661  0.000062  0.000051  0.000215  0.000010
 11   -228.61511518  -0.0000000305  0.000038  0.000043  0.000068  0.000003
 12   -228.61511520  -0.0000000179  0.000010  0.000016  0.000034  0.000002
                 **** Energy Check signals convergence ****
              ***Rediagonalizing the Fockian in SOSCF/NRSCF***

               *****************************************************
               *                     SUCCESS                       *
               *           SCF CONVERGED AFTER  13 CYCLES          *
               *****************************************************

Old exchange energy                            =    -11.862148698 Eh
New exchange energy                            =    -11.862148840 Eh
Exchange energy change after final integration =     -0.000000142 Eh
Total energy after final integration           =   -228.615115343 Eh
Final COS-X integration done in                =     1.170 sec

----------------
TOTAL SCF ENERGY
----------------

Total Energy       :         -228.61511534 Eh           -6220.93355 eV

Components:
Nuclear Repulsion  :          121.23567051 Eh            3298.99031 eV
Electronic Energy  :         -349.85078585 Eh           -9519.92387 eV
One Electron Energy:         -552.17693706 Eh          -15025.49834 eV
Two Electron Energy:          202.32615121 Eh            5505.57447 eV
Max COSX asymmetry :            0.00000199 Eh               0.00005 eV

Virial components:
Potential Energy   :         -455.67625474 Eh          -12399.58127 eV
Kinetic Energy     :          227.06113939 Eh            6178.64772 eV
Virial Ratio       :            2.00684387


DFT components:
N(Alpha)           :       15.999999630355 electrons
N(Beta)            :       15.999999630355 electrons
N(Total)           :       31.999999260710 electrons
E(X)               :      -15.795896774402 Eh       
E(C)               :       -1.416718635868 Eh       
E(XC)              :      -17.212615410270 Eh       
DFET-embed. en.    :        0.000000000000 Eh       

---------------
SCF CONVERGENCE
---------------

  Last Energy change         ...   -2.1707e-09  Tolerance :   1.0000e-08
  Last MAX-Density change    ...    2.2204e-15  Tolerance :   1.0000e-07
  Last RMS-Density change    ...    7.1796e-17  Tolerance :   5.0000e-09
  Last Orbital Gradient      ...    1.4002e-06  Tolerance :   1.0000e-05
  Last Orbital Rotation      ...    1.7403e-06  Tolerance :   1.0000e-05

             **** THE GBW FILE WAS UPDATED (pbeh-3c.gbw) ****
             **** DENSITY pbeh-3c.scfp WAS UPDATED ****
             **** ENERGY FILE WAS UPDATED (pbeh-3c.en.tmp) ****
             **** THE GBW FILE WAS UPDATED (pbeh-3c.gbw) ****
             **** DENSITY pbeh-3c.scfp WAS UPDATED ****
----------------
ORBITAL ENERGIES
----------------

  NO   OCC          E(Eh)            E(eV) 
   0   2.0000     -19.542304      -531.7731 
   1   2.0000     -19.487039      -530.2693 
   2   2.0000     -10.586012      -288.0600 
   3   2.0000     -10.450270      -284.3663 
   4   2.0000      -1.220620       -33.2148 
   5   2.0000      -1.124233       -30.5919 
   6   2.0000      -0.851849       -23.1800 
   7   2.0000      -0.682956       -18.5842 
   8   2.0000      -0.561698       -15.2846 
   9   2.0000      -0.548918       -14.9368 
  10   2.0000      -0.535221       -14.5641 
  11   2.0000      -0.471354       -12.8262 
  12   2.0000      -0.459602       -12.5064 
  13   2.0000      -0.452677       -12.3180 
  14   2.0000      -0.377593       -10.2748 
  15   2.0000      -0.337720        -9.1898 
  16   0.0000       0.043771         1.1911 
  17   0.0000       0.130036         3.5385 
  18   0.0000       0.166069         4.5190 
  19   0.0000       0.205375         5.5885 
  20   0.0000       0.218861         5.9555 
  21   0.0000       0.238274         6.4838 
  22   0.0000       0.320942         8.7333 
  23   0.0000       0.367346         9.9960 
  24   0.0000       0.504225        13.7206 
  25   0.0000       0.536113        14.5884 
  26   0.0000       0.569818        15.5055 
  27   0.0000       0.574424        15.6309 
  28   0.0000       0.590923        16.0798 
  29   0.0000       0.698697        19.0125 
  30   0.0000       0.794334        21.6149 
  31   0.0000       0.880421        23.9575 
  32   0.0000       0.944340        25.6968 
  33   0.0000       0.971190        26.4274 
  34   0.0000       1.015366        27.6295 
  35   0.0000       1.036141        28.1948 
  36   0.0000       1.043105        28.3843 
  37   0.0000       1.099983        29.9320 
  38   0.0000       1.147418        31.2228 
  39   0.0000       1.158040        31.5119 
  40   0.0000       1.195597        32.5339 
  41   0.0000       1.391769        37.8720 
  42   0.0000       1.423728        38.7416 
  43   0.0000       1.451696        39.5027 
  44   0.0000       1.700022        46.2599 
  45   0.0000       1.772625        48.2356 
  46   0.0000       1.781856        48.4868 
  47   0.0000       1.838034        50.0155 
  48   0.0000       1.860080        50.6154 
  49   0.0000       1.939885        52.7870 
  50   0.0000       1.966653        53.5153 
  51   0.0000       2.028831        55.2073 
  52   0.0000       2.065151        56.1956 
  53   0.0000       2.121618        57.7322 
  54   0.0000       2.254765        61.3553 
  55   0.0000       2.280469        62.0547 
  56   0.0000       2.374326        64.6087 
  57   0.0000       2.511018        68.3283 
  58   0.0000       2.554368        69.5079 
  59   0.0000       2.714556        73.8668 
  60   0.0000       2.754032        74.9410 
  61   0.0000       2.885682        78.5234 
  62   0.0000       2.993677        81.4621 
  63   0.0000       3.162892        86.0667 
  64   0.0000      13.640526       371.1776 
  65   0.0000      14.053690       382.4203 
  66   0.0000      25.527507       694.6388 
  67   0.0000      25.696328       699.2326 

                    ********************************
                    * MULLIKEN POPULATION ANALYSIS *
                    ********************************

-----------------------
MULLIKEN ATOMIC CHARGES
-----------------------
   0 C :    0.506673
   1 O :   -0.390573
   2 O :   -0.587012
   3 H :    0.441489
   4 C :   -0.739628
   5 H :    0.258887
   6 H :    0.255951
   7 H :    0.254214
Sum of atomic charges:    0.0000000

--------------------------------
MULLIKEN REDUCED ORBITAL CHARGES
--------------------------------
  0 C s       :     2.969952  s :     2.969952
      pz      :     0.741463  p :     2.388054
      px      :     0.868327
      py      :     0.778263
      dz2     :     0.007855  d :     0.135322
      dxz     :     0.025107
      dyz     :     0.012359
      dx2y2   :     0.036833
      dxy     :     0.053168
  1 O s       :     3.757077  s :     3.757077
      pz      :     1.437153  p :     4.602717
      px      :     1.384708
      py      :     1.780856
      dz2     :     0.002800  d :     0.030780
      dxz     :     0.011462
      dyz     :     0.000369
      dx2y2   :     0.008612
      dxy     :     0.007537
  2 O s       :     3.807252  s :     3.807252
      pz      :     1.792585  p :     4.748976
      px      :     1.634966
      py      :     1.321426
      dz2     :     0.004414  d :     0.030784
      dxz     :     0.004207
      dyz     :     0.002587
      dx2y2   :     0.004710
      dxy     :     0.014866
  3 H s       :     0.558511  s :     0.558511
  4 C s       :     3.408931  s :     3.408931
      pz      :     1.154532  p :     3.296940
      px      :     1.077337
      py      :     1.065071
      dz2     :     0.007113  d :     0.033757
      dxz     :     0.009321
      dyz     :     0.002458
      dx2y2   :     0.005039
      dxy     :     0.009825
  5 H s       :     0.741113  s :     0.741113
  6 H s       :     0.744049  s :     0.744049
  7 H s       :     0.745786  s :     0.745786


                     *******************************
                     * LOEWDIN POPULATION ANALYSIS *
                     *******************************

----------------------
LOEWDIN ATOMIC CHARGES
----------------------
   0 C :    0.132116
   1 O :   -0.231294
   2 O :   -0.310789
   3 H :    0.331556
   4 C :   -0.390379
   5 H :    0.153209
   6 H :    0.159228
   7 H :    0.156354

-------------------------------
LOEWDIN REDUCED ORBITAL CHARGES
-------------------------------
  0 C s       :     2.836796  s :     2.836796
      pz      :     0.757996  p :     2.728406
      px      :     1.050848
      py      :     0.919562
      dz2     :     0.018597  d :     0.302683
      dxz     :     0.050074
      dyz     :     0.025970
      dx2y2   :     0.080792
      dxy     :     0.127250
  1 O s       :     3.521921  s :     3.521921
      pz      :     1.422505  p :     4.652637
      px      :     1.476589
      py      :     1.753544
      dz2     :     0.006661  d :     0.056736
      dxz     :     0.014863
      dyz     :     0.000512
      dx2y2   :     0.020334
      dxy     :     0.014366
  2 O s       :     3.511076  s :     3.511076
      pz      :     1.772560  p :     4.746264
      px      :     1.622703
      py      :     1.351001
      dz2     :     0.006916  d :     0.053449
      dxz     :     0.004962
      dyz     :     0.005510
      dx2y2   :     0.010598
      dxy     :     0.025463
  3 H s       :     0.668444  s :     0.668444
  4 C s       :     2.961536  s :     2.961536
      pz      :     1.142000  p :     3.365352
      px      :     1.111798
      py      :     1.111554
      dz2     :     0.012723  d :     0.063491
      dxz     :     0.016623
      dyz     :     0.004179
      dx2y2   :     0.009953
      dxy     :     0.020013
  5 H s       :     0.846791  s :     0.846791
  6 H s       :     0.840772  s :     0.840772
  7 H s       :     0.843646  s :     0.843646


                      *****************************
                      * MAYER POPULATION ANALYSIS *
                      *****************************

  NA   - Mulliken gross atomic population
  ZA   - Total nuclear charge
  QA   - Mulliken gross atomic charge
  VA   - Mayer's total valence
  BVA  - Mayer's bonded valence
  FA   - Mayer's free valence

  ATOM       NA         ZA         QA         VA         BVA        FA
  0 C      5.4933     6.0000     0.5067     4.1183     4.1183     0.0000
  1 O      8.3906     8.0000    -0.3906     2.2108     2.2108     0.0000
  2 O      8.5870     8.0000    -0.5870     1.9820     1.9820     0.0000
  3 H      0.5585     1.0000     0.4415     0.7966     0.7966     0.0000
  4 C      6.7396     6.0000    -0.7396     3.6666     3.6666     0.0000
  5 H      0.7411     1.0000     0.2589     0.9007     0.9007    -0.0000
  6 H      0.7440     1.0000     0.2560     0.8995     0.8995    -0.0000
  7 H      0.7458     1.0000     0.2542     0.9010     0.9010    -0.0000

  Mayer bond orders larger than 0.100000
B(  0-C ,  1-O ) :   2.0715 B(  0-C ,  2-O ) :   1.1354 B(  0-C ,  4-C ) :   0.9386 
B(  2-O ,  3-H ) :   0.7622 B(  4-C ,  5-H ) :   0.9169 B(  4-C ,  6-H ) :   0.9040 
B(  4-C ,  7-H ) :   0.9053 

-------
TIMINGS
-------

Total SCF time: 0 days 0 hours 1 min 3 sec 

Total time                  ....      63.044 sec
Sum of individual times     ....      56.544 sec  ( 89.7%)

Fock matrix formation       ....      44.760 sec  ( 71.0%)
  Split-RI-J                ....       6.774 sec  ( 15.1% of F)
  Chain of spheres X        ....      10.218 sec  ( 22.8% of F)
  XC integration            ....      12.720 sec  ( 28.4% of F)
    Basis function eval.    ....       1.321 sec  ( 10.4% of XC)
    Density eval.           ....       0.779 sec  (  6.1% of XC)
    XC-Functional eval.     ....       0.803 sec  (  6.3% of XC)
    XC-Potential eval.      ....       0.361 sec  (  2.8% of XC)
Diagonalization             ....       1.246 sec  (  2.0%)
Density matrix formation    ....       0.148 sec  (  0.2%)
Population analysis         ....       0.690 sec  (  1.1%)
Initial guess               ....       0.004 sec  (  0.0%)
Orbital Transformation      ....       0.000 sec  (  0.0%)
Orbital Orthonormalization  ....       0.000 sec  (  0.0%)
DIIS solution               ....       2.226 sec  (  3.5%)
SOSCF solution              ....       1.917 sec  (  3.0%)
Grid generation             ....       5.554 sec  (  8.8%)

Maximum memory used throughout the entire SCF-calculation: 47.0 MB


-------------------------------------------------------------------------------
                          DFT DISPERSION CORRECTION                            
                                                                               
                              DFTD3 V3.1  Rev 1                                
                          USING Becke-Johnson damping                          
-------------------------------------------------------------------------------
The PBEh-3c composite method is recognized
Using three-body term ABC
Active option DFTDOPT                   ...         4   

molecular C6(AA) [au] = 530.135789 


            DFT-D V3
 parameters
 s6 scaling factor         :     1.0000 
 a1 scaling factor         :     0.4860 
 s8 scaling factor         :     0.0000 
 a2 scaling factor         :     4.5000 
 Damping factor alpha9(ATM):    16.0000 
 ad hoc parameters k1-k3   :    16.0000     1.3333    -4.0000 

 Edisp/kcal,au: -1.453466409449  -0.002316245913 
 E6   /kcal   :  -1.455175617 
 E8   /kcal   :  -0.000000000 
 E6(ABC)      :   0.001709208 
 % E8         :   0.000000000 
 % E6(ABC)    :  -0.117595256 

-------------------------   ----------------
Dispersion correction           -0.002316246
-------------------------   ----------------

------------------   -----------------
gCP correction             0.015591912
------------------   -----------------

-------------------------   --------------------
FINAL SINGLE POINT ENERGY      -228.601839676174
-------------------------   --------------------


                            ***************************************
                            *     ORCA property calculations      *
                            ***************************************

                                    ---------------------
                                    Active property flags
                                    ---------------------
   (+) Dipole Moment


------------------------------------------------------------------------------
                       ORCA ELECTRIC PROPERTIES CALCULATION
------------------------------------------------------------------------------

Dipole Moment Calculation                       ... on
Quadrupole Moment Calculation                   ... off
Polarizability Calculation                      ... off
GBWName                                         ... pbeh-3c.gbw
Electron density                                ... pbeh-3c.scfp
The origin for moment calculation is the CENTER OF MASS  = ( 0.770281, -0.551472  0.197327)

-------------
DIPOLE MOMENT
-------------
                                X             Y             Z
Electronic contribution:      2.42052      -2.18669       0.71125
Nuclear contribution   :     -3.04872       2.04469      -0.75441
                        -----------------------------------------
Total Dipole Moment    :     -0.62820      -0.14200      -0.04317
                        -----------------------------------------
Magnitude (a.u.)       :      0.64550
Magnitude (Debye)      :      1.64072



--------------------
Rotational spectrum 
--------------------
 
Rotational constants in cm-1:     0.377730     0.317623     0.178242 
Rotational constants in MHz : 11324.072956  9522.107142  5343.569186 

 Dipole components along the rotational axes: 
x,y,z [a.u.] :     0.292588    -0.575229    -0.013019 
x,y,z [Debye]:     0.743698    -1.462115    -0.033092 

 

Timings for individual modules:

Sum of individual times         ...       67.306 sec (=   1.122 min)
GTO integral calculation        ...        3.024 sec (=   0.050 min)   4.5 %
SCF iterations                  ...       64.282 sec (=   1.071 min)  95.5 %
                             ****ORCA TERMINATED NORMALLY****
TOTAL RUN TIME: 0 days 0 hours 1 minutes 9 seconds 796 msec
