
                                 *****************
                                 * O   R   C   A *
                                 *****************

                                            #,                                       
                                            ###                                      
                                            ####                                     
                                            #####                                    
                                            ######                                   
                                           ########,                                 
                                     ,,################,,,,,                         
                               ,,#################################,,                 
                          ,,##########################################,,             
                       ,#########################################, ''#####,          
                    ,#############################################,,   '####,        
                  ,##################################################,,,,####,       
                ,###########''''           ''''###############################       
              ,#####''   ,,,,##########,,,,          '''####'''          '####       
            ,##' ,,,,###########################,,,                        '##       
           ' ,,###''''                  '''############,,,                           
         ,,##''                                '''############,,,,        ,,,,,,###''
      ,#''                                            '''#######################'''  
     '                                                          ''''####''''         
             ,#######,   #######,   ,#######,      ##                                
            ,#'     '#,  ##    ##  ,#'     '#,    #''#        ######   ,####,        
            ##       ##  ##   ,#'  ##            #'  '#       #        #'  '#        
            ##       ##  #######   ##           ,######,      #####,   #    #        
            '#,     ,#'  ##    ##  '#,     ,#' ,#      #,         ##   #,  ,#        
             '#######'   ##     ##  '#######'  #'      '#     #####' # '####'        



                  #######################################################
                  #                        -***-                        #
                  #          Department of theory and spectroscopy      #
                  #    Directorship and core code : Frank Neese         #
                  #        Max Planck Institute fuer Kohlenforschung    #
                  #                Kaiser Wilhelm Platz 1               #
                  #                 D-45470 Muelheim/Ruhr               #
                  #                      Germany                        #
                  #                                                     #
                  #                  All rights reserved                #
                  #                        -***-                        #
                  #######################################################


                         Program Version 5.0.3 -  RELEASE  -


 With contributions from (in alphabetic order):
   Daniel Aravena         : Magnetic Suceptibility
   Michael Atanasov       : Ab Initio Ligand Field Theory (pilot matlab implementation)
   Alexander A. Auer      : GIAO ZORA, VPT2 properties, NMR spectrum
   Ute Becker             : Parallelization
   Giovanni Bistoni       : ED, misc. LED, open-shell LED, HFLD
   Martin Brehm           : Molecular dynamics
   Dmytro Bykov           : SCF Hessian
   Vijay G. Chilkuri      : MRCI spin determinant printing, contributions to CSF-ICE
   Dipayan Datta          : RHF DLPNO-CCSD density
   Achintya Kumar Dutta   : EOM-CC, STEOM-CC
   Dmitry Ganyushin       : Spin-Orbit,Spin-Spin,Magnetic field MRCI
   Miquel Garcia          : C-PCM and meta-GGA Hessian, CC/C-PCM, Gaussian charge scheme
   Yang Guo               : DLPNO-NEVPT2, F12-NEVPT2, CIM, IAO-localization
   Andreas Hansen         : Spin unrestricted coupled pair/coupled cluster methods
   Benjamin Helmich-Paris : MC-RPA, TRAH-SCF, COSX integrals
   Lee Huntington         : MR-EOM, pCC
   Robert Izsak           : Overlap fitted RIJCOSX, COSX-SCS-MP3, EOM
   Marcus Kettner         : VPT2
   Christian Kollmar      : KDIIS, OOCD, Brueckner-CCSD(T), CCSD density, CASPT2, CASPT2-K
   Simone Kossmann        : Meta GGA functionals, TD-DFT gradient, OOMP2, MP2 Hessian
   Martin Krupicka        : Initial AUTO-CI
   Lucas Lang             : DCDCAS
   Marvin Lechner         : AUTO-CI (C++ implementation), FIC-MRCC
   Dagmar Lenk            : GEPOL surface, SMD
   Dimitrios Liakos       : Extrapolation schemes; Compound Job, initial MDCI parallelization
   Dimitrios Manganas     : Further ROCIS development; embedding schemes
   Dimitrios Pantazis     : SARC Basis sets
   Anastasios Papadopoulos: AUTO-CI, single reference methods and gradients
   Taras Petrenko         : DFT Hessian,TD-DFT gradient, ASA, ECA, R-Raman, ABS, FL, XAS/XES, NRVS
   Peter Pinski           : DLPNO-MP2, DLPNO-MP2 Gradient
   Christoph Reimann      : Effective Core Potentials
   Marius Retegan         : Local ZFS, SOC
   Christoph Riplinger    : Optimizer, TS searches, QM/MM, DLPNO-CCSD(T), (RO)-DLPNO pert. Triples
   Tobias Risthaus        : Range-separated hybrids, TD-DFT gradient, RPA, STAB
   Michael Roemelt        : Original ROCIS implementation
   Masaaki Saitow         : Open-shell DLPNO-CCSD energy and density
   Barbara Sandhoefer     : DKH picture change effects
   Avijit Sen             : IP-ROCIS
   Kantharuban Sivalingam : CASSCF convergence, NEVPT2, FIC-MRCI
   Bernardo de Souza      : ESD, SOC TD-DFT
   Georgi Stoychev        : AutoAux, RI-MP2 NMR, DLPNO-MP2 response
   Willem Van den Heuvel  : Paramagnetic NMR
   Boris Wezisla          : Elementary symmetry handling
   Frank Wennmohs         : Technical directorship


 We gratefully acknowledge several colleagues who have allowed us to
 interface, adapt or use parts of their codes:
   Stefan Grimme, W. Hujo, H. Kruse, P. Pracht,  : VdW corrections, initial TS optimization,
                  C. Bannwarth, S. Ehlert          DFT functionals, gCP, sTDA/sTD-DF
   Ed Valeev, F. Pavosevic, A. Kumar             : LibInt (2-el integral package), F12 methods
   Garnet Chan, S. Sharma, J. Yang, R. Olivares  : DMRG
   Ulf Ekstrom                                   : XCFun DFT Library
   Mihaly Kallay                                 : mrcc  (arbitrary order and MRCC methods)
   Jiri Pittner, Ondrej Demel                    : Mk-CCSD
   Frank Weinhold                                : gennbo (NPA and NBO analysis)
   Christopher J. Cramer and Donald G. Truhlar   : smd solvation model
   Lars Goerigk                                  : TD-DFT with DH, B97 family of functionals
   V. Asgeirsson, H. Jonsson                     : NEB implementation
   FAccTs GmbH                                   : IRC, NEB, NEB-TS, DLPNO-Multilevel, CI-OPT
                                                   MM, QMMM, 2- and 3-layer-ONIOM, Crystal-QMMM,
                                                   LR-CPCM, SF, NACMEs, symmetry and pop. for TD-DFT,
                                                   nearIR, NL-DFT gradient (VV10), updates on ESD,
                                                   ML-optimized integration grids
   S Lehtola, MJT Oliveira, MAL Marques          : LibXC Library
   Liviu Ungur et al                             : ANISO software


 Your calculation uses the libint2 library for the computation of 2-el integrals
 For citations please refer to: http://libint.valeyev.net

 Your ORCA version has been built with support for libXC version: 5.1.0
 For citations please refer to: https://tddft.org/programs/libxc/

 This ORCA versions uses:
   CBLAS   interface :  Fast vector & matrix operations
   LAPACKE interface :  Fast linear algebra routines
   SCALAPACK package :  Parallel linear algebra routines
   Shared memory     :  Shared parallel matrices
   BLAS/LAPACK       :  OpenBLAS 0.3.15  USE64BITINT DYNAMIC_ARCH NO_AFFINITY Haswell SINGLE_THREADED
        Core in use  :  Haswell
   Copyright (c) 2011-2014, The OpenBLAS Project




***************************************
The coordinates will be read from file: li4_me4.xyz
***************************************


Your calculation utilizes the geometrical counterpoise correction gCP
Please cite in your paper:
H.Kruse, S. Grimme J.Chem.Phys., 136, (2012), 154101 
   

Your calculation utilizes the atom-pairwise dispersion correction
with the Becke-Johnson damping scheme (D3BJ)
Cite in your paper:
S.Grimme, S.Ehrlich, L.Goerigk, J Comput Chem, (2011), 32, 1456–1465 
S.Grimme, J.Antony, S.Ehrlich and H.Krieg, J.Chem.Phys., 132, (2010), 154104 
   

Your calculation employs the composite approach PBEh-3c.
Please cite in your paper:
S. Grimme, J. G. Brandenburg, C. Bannwarth, A. Hansen J.Chem.Phys., 143, (2015), 054107 
   

================================================================================

----- Orbital basis set information -----
Your calculation utilizes the basis: def2-mSVP

----- AuxJ basis set information -----
Your calculation utilizes the auxiliary basis: def2/J
   F. Weigend, Phys. Chem. Chem. Phys. 8, 1057 (2006).

================================================================================
                                        WARNINGS
                       Please study these warnings very carefully!
================================================================================


INFO   : the flag for use of the SHARK integral package has been found!

================================================================================
                                       INPUT FILE
================================================================================
NAME = pbeh-3c.inp
|  1> ! PBEh-3c def2/J TightSCF DefGrid3
|  2> 
|  3> %maxcore 60000
|  4> 
|  5> %pal
|  6> nprocs 4
|  7> end
|  8> 
|  9> *xyzfile 0 1 li4_me4.xyz
| 10> 
| 11>                          ****END OF INPUT****
================================================================================

                       ****************************
                       * Single Point Calculation *
                       ****************************

---------------------------------
CARTESIAN COORDINATES (ANGSTROEM)
---------------------------------
  Li     0.840048   -0.840048    0.840048
  Li    -0.840048    0.840048    0.840048
  Li    -0.840048   -0.840048   -0.840048
  Li     0.840048    0.840048   -0.840048
  C     -1.262088   -1.262088    1.262088
  C      1.262088   -1.262088   -1.262088
  C     -1.262088    1.262088   -1.262088
  C      1.262088    1.262088    1.262088
  H     -2.346834   -1.129916    1.129916
  H     -1.129916   -2.346834    1.129916
  H     -1.129916   -1.129916    2.346834
  H      1.129916    2.346834    1.129916
  H      1.129916    1.129916    2.346834
  H      2.346834    1.129916    1.129916
  H      1.129916   -1.129916   -2.346834
  H      2.346834   -1.129916   -1.129916
  H      1.129916   -2.346834   -1.129916
  H     -1.129916    1.129916   -2.346834
  H     -2.346834    1.129916   -1.129916
  H     -1.129916    2.346834   -1.129916

----------------------------
CARTESIAN COORDINATES (A.U.)
----------------------------
  NO LB      ZA    FRAG     MASS         X           Y           Z
   0 Li    3.0000    0     6.941    1.587460   -1.587460    1.587460
   1 Li    3.0000    0     6.941   -1.587460    1.587460    1.587460
   2 Li    3.0000    0     6.941   -1.587460   -1.587460   -1.587460
   3 Li    3.0000    0     6.941    1.587460    1.587460   -1.587460
   4 C     6.0000    0    12.011   -2.385001   -2.385001    2.385001
   5 C     6.0000    0    12.011    2.385001   -2.385001   -2.385001
   6 C     6.0000    0    12.011   -2.385001    2.385001   -2.385001
   7 C     6.0000    0    12.011    2.385001    2.385001    2.385001
   8 H     1.0000    0     1.008   -4.434874   -2.135231    2.135231
   9 H     1.0000    0     1.008   -2.135231   -4.434874    2.135231
  10 H     1.0000    0     1.008   -2.135231   -2.135231    4.434874
  11 H     1.0000    0     1.008    2.135231    4.434874    2.135231
  12 H     1.0000    0     1.008    2.135231    2.135231    4.434874
  13 H     1.0000    0     1.008    4.434874    2.135231    2.135231
  14 H     1.0000    0     1.008    2.135231   -2.135231   -4.434874
  15 H     1.0000    0     1.008    4.434874   -2.135231   -2.135231
  16 H     1.0000    0     1.008    2.135231   -4.434874   -2.135231
  17 H     1.0000    0     1.008   -2.135231    2.135231   -4.434874
  18 H     1.0000    0     1.008   -4.434874    2.135231   -2.135231
  19 H     1.0000    0     1.008   -2.135231    4.434874   -2.135231

--------------------------------
INTERNAL COORDINATES (ANGSTROEM)
--------------------------------
 Li     0   0   0     0.000000000000     0.00000000     0.00000000
 Li     1   0   0     2.376013983603     0.00000000     0.00000000
 Li     1   2   0     2.376013983603    60.00000000     0.00000000
 Li     1   2   3     2.376013983603    60.00000000    70.52877937
 C      1   2   3     2.185225702695    57.06726009   291.96083948
 C      1   2   3     2.185225702695   105.85072579    35.26438968
 C      2   1   3     2.185225702695   105.85072579   324.73561032
 C      1   2   3     2.185225702695    57.06726009   138.56793988
 H      5   1   2     1.100732948552   154.37225477    36.56454029
 H      5   1   2     1.100732948552    92.95929732   165.04800052
 H      5   1   2     1.100732948552    92.95929732   268.08108006
 H      8   1   2     1.100732948552   154.37225477   323.43545971
 H      8   1   2     1.100732948552    92.95929732    91.91891994
 H      8   1   2     1.100732948552    92.95929732   194.95199948
 H      6   1   2     1.100732948552   154.37225477     0.00000000
 H      6   1   2     1.100732948552    92.95929732   128.48346023
 H      6   1   2     1.100732948552    92.95929732   231.51653977
 H      7   2   1     1.100732948552   154.37225477     0.00000000
 H      7   2   1     1.100732948552    92.95929732   128.48346023
 H      7   2   1     1.100732948552    92.95929732   231.51653977

---------------------------
INTERNAL COORDINATES (A.U.)
---------------------------
 Li     0   0   0     0.000000000000     0.00000000     0.00000000
 Li     1   0   0     4.490015719378     0.00000000     0.00000000
 Li     1   2   0     4.490015719378    60.00000000     0.00000000
 Li     1   2   3     4.490015719378    60.00000000    70.52877937
 C      1   2   3     4.129478118898    57.06726009   291.96083948
 C      1   2   3     4.129478118898   105.85072579    35.26438968
 C      2   1   3     4.129478118898   105.85072579   324.73561032
 C      1   2   3     4.129478118898    57.06726009   138.56793988
 H      5   1   2     2.080083819347   154.37225477    36.56454029
 H      5   1   2     2.080083819347    92.95929732   165.04800052
 H      5   1   2     2.080083819347    92.95929732   268.08108006
 H      8   1   2     2.080083819347   154.37225477   323.43545971
 H      8   1   2     2.080083819347    92.95929732    91.91891994
 H      8   1   2     2.080083819347    92.95929732   194.95199948
 H      6   1   2     2.080083819347   154.37225477     0.00000000
 H      6   1   2     2.080083819347    92.95929732   128.48346023
 H      6   1   2     2.080083819347    92.95929732   231.51653977
 H      7   2   1     2.080083819347   154.37225477     0.00000000
 H      7   2   1     2.080083819347    92.95929732   128.48346023
 H      7   2   1     2.080083819347    92.95929732   231.51653977

---------------------
BASIS SET INFORMATION
---------------------
There are 3 groups of distinct atoms

 Group   1 Type Li  : 7s3p contracted to 3s2p pattern {511/21}
 Group   2 Type C   : 8s4p1d contracted to 4s2p1d pattern {5111/31/1}
 Group   3 Type H   : 4s contracted to 2s pattern {31}

Atom   0Li   basis set group =>   1
Atom   1Li   basis set group =>   1
Atom   2Li   basis set group =>   1
Atom   3Li   basis set group =>   1
Atom   4C    basis set group =>   2
Atom   5C    basis set group =>   2
Atom   6C    basis set group =>   2
Atom   7C    basis set group =>   2
Atom   8H    basis set group =>   3
Atom   9H    basis set group =>   3
Atom  10H    basis set group =>   3
Atom  11H    basis set group =>   3
Atom  12H    basis set group =>   3
Atom  13H    basis set group =>   3
Atom  14H    basis set group =>   3
Atom  15H    basis set group =>   3
Atom  16H    basis set group =>   3
Atom  17H    basis set group =>   3
Atom  18H    basis set group =>   3
Atom  19H    basis set group =>   3
---------------------------------
AUXILIARY/J BASIS SET INFORMATION
---------------------------------
There are 3 groups of distinct atoms

 Group   1 Type Li  : 12s5p4d2f1g contracted to 6s4p3d1f1g pattern {711111/2111/211/2/1}
 Group   2 Type C   : 12s5p4d2f1g contracted to 6s4p3d1f1g pattern {711111/2111/211/2/1}
 Group   3 Type H   : 5s2p1d contracted to 3s1p1d pattern {311/2/1}

Atom   0Li   basis set group =>   1
Atom   1Li   basis set group =>   1
Atom   2Li   basis set group =>   1
Atom   3Li   basis set group =>   1
Atom   4C    basis set group =>   2
Atom   5C    basis set group =>   2
Atom   6C    basis set group =>   2
Atom   7C    basis set group =>   2
Atom   8H    basis set group =>   3
Atom   9H    basis set group =>   3
Atom  10H    basis set group =>   3
Atom  11H    basis set group =>   3
Atom  12H    basis set group =>   3
Atom  13H    basis set group =>   3
Atom  14H    basis set group =>   3
Atom  15H    basis set group =>   3
Atom  16H    basis set group =>   3
Atom  17H    basis set group =>   3
Atom  18H    basis set group =>   3
Atom  19H    basis set group =>   3


           ************************************************************
           *        Program running with 4 parallel MPI-processes     *
           *              working on a common directory               *
           ************************************************************
------------------------------------------------------------------------------
                           ORCA GTO INTEGRAL CALCULATION
                           -- RI-GTO INTEGRALS CHOSEN --
------------------------------------------------------------------------------
------------------------------------------------------------------------------
                   ___                                                        
                  /   \      - P O W E R E D   B Y -                         
                 /     \                                                     
                 |  |  |   _    _      __       _____    __    __             
                 |  |  |  | |  | |    /  \     |  _  \  |  |  /  |          
                  \  \/   | |  | |   /    \    | | | |  |  | /  /          
                 / \  \   | |__| |  /  /\  \   | |_| |  |  |/  /          
                |  |  |   |  __  | /  /__\  \  |    /   |      \           
                |  |  |   | |  | | |   __   |  |    \   |  |\   \          
                \     /   | |  | | |  |  |  |  | |\  \  |  | \   \       
                 \___/    |_|  |_| |__|  |__|  |_| \__\ |__|  \__/        
                                                                              
                      - O R C A' S   B I G   F R I E N D -                    
                                      &                                       
                       - I N T E G R A L  F E E D E R -                       
                                                                              
 v1 FN, 2020, v2 2021                                                         
------------------------------------------------------------------------------


Reading SHARK input file pbeh-3c.SHARKINP.tmp ... ok
----------------------
SHARK INTEGRAL PACKAGE
----------------------

Number of atoms                             ...     20
Number of basis functions                   ...    120
Number of shells                            ...     72
Maximum angular momentum                    ...      2
Integral batch strategy                     ... SHARK/LIBINT Hybrid
RI-J (if used) integral strategy            ... SPLIT-RIJ (Revised 2003 algorithm where possible)
Printlevel                                  ...      1
Contraction scheme used                     ... SEGMENTED contraction
Coulomb Range Separation                    ... NOT USED
Exchange Range Separation                   ... NOT USED
Finite Nucleus Model                        ... NOT USED
Auxiliary Coulomb fitting basis             ... AVAILABLE
   # of basis functions in Aux-J            ...    524
   # of shells in Aux-J                     ...    180
   Maximum angular momentum in Aux-J        ...      4
Auxiliary J/K fitting basis                 ... NOT available
Auxiliary Correlation fitting basis         ... NOT available
Auxiliary 'external' fitting basis          ... NOT available
Integral threshold                          ...     2.500000e-11
Primitive cut-off                           ...     2.500000e-12
Primitive pair pre-selection threshold      ...     2.500000e-12

Calculating pre-screening integrals         ... done (  0.1 sec) Dimension = 72
Organizing shell pair data                  ... done (  0.3 sec)
Shell pair information
Total number of shell pairs                 ...      2628
Shell pairs after pre-screening             ...      2500
Total number of primitive shell pairs       ...     10002
Primitive shell pairs kept                  ...      6856
          la=0 lb=0:   1262 shell pairs
          la=1 lb=0:    832 shell pairs
          la=1 lb=1:    136 shell pairs
          la=2 lb=0:    196 shell pairs
          la=2 lb=1:     64 shell pairs
          la=2 lb=2:     10 shell pairs

Calculating one electron integrals          ... done (  0.0 sec)
Calculating RI/J V-Matrix + Cholesky decomp.... done (  0.3 sec)
Calculating Nuclear repulsion               ... done (  0.1 sec) ENN=    205.569059629694 Eh

SHARK setup successfully completed in   2.2 seconds

Maximum memory used throughout the entire GTOINT-calculation: 11.2 MB


           ************************************************************
           *        Program running with 4 parallel MPI-processes     *
           *              working on a common directory               *
           ************************************************************
-------------------------------------------------------------------------------
                                 ORCA SCF
-------------------------------------------------------------------------------

------------
SCF SETTINGS
------------
Hamiltonian:
 Density Functional     Method          .... DFT(GTOs)
 Exchange Functional    Exchange        .... PBE
   PBE kappa parameter   XKappa         ....  1.024500
   PBE mue parameter    XMuePBE         ....  0.123457
 Correlation Functional Correlation     .... PBE
   PBE beta parameter  CBetaPBE         ....  0.030000
 LDA part of GGA corr.  LDAOpt          .... PW91-LDA
 Gradients option       PostSCFGGA      .... off
 Hybrid DFT is turned on
   Fraction HF Exchange ScalHFX         ....  0.420000
   Scaling of DF-GGA-X  ScalDFX         ....  0.580000
   Scaling of DF-GGA-C  ScalDFC         ....  1.000000
   Scaling of DF-LDA-C  ScalLDAC        ....  1.000000
   Perturbative correction              ....  0.000000
   Density functional embedding theory  .... OFF
 RI-approximation to the Coulomb term is turned on
   Number of AuxJ basis functions       .... 524
   RIJ-ON(X) (HFX calculated with O(N)) .... on
   Number of AuxJ basis functions       .... 524
   RIJ-COSX (HFX calculated with COS-X)).... on


General Settings:
 Integral files         IntName         .... pbeh-3c
 Hartree-Fock type      HFTyp           .... RHF
 Total Charge           Charge          ....    0
 Multiplicity           Mult            ....    1
 Number of Electrons    NEL             ....   48
 Basis Dimension        Dim             ....  120
 Nuclear Repulsion      ENuc            ....    205.5690596297 Eh

Convergence Acceleration:
 DIIS                   CNVDIIS         .... on
   Start iteration      DIISMaxIt       ....    12
   Startup error        DIISStart       ....  0.200000
   # of expansion vecs  DIISMaxEq       ....     5
   Bias factor          DIISBfac        ....   1.050
   Max. coefficient     DIISMaxC        ....  10.000
 Trust-Rad. Augm. Hess. CNVTRAH         .... auto
   Auto Start mean grad. ratio tolernc. ....  1.125000
   Auto Start start iteration           ....    20
   Auto Start num. interpolation iter.  ....    10
   Max. Number of Micro iterations      ....    16
   Max. Number of Macro iterations      .... Maxiter - #DIIS iter
   Number of Davidson start vectors     ....     2
   Converg. threshold I  (grad. norm)   ....   1.000e-05
   Converg. threshold II (energy diff.) ....   1.000e-08
   Grad. Scal. Fac. for Micro threshold ....   0.100
   Minimum threshold for Micro iter.    ....   0.010
   NR start threshold (gradient norm)   ....   0.001
   Initial trust radius                 ....   0.400
   Minimum AH scaling param. (alpha)    ....   1.000
   Maximum AH scaling param. (alpha)    .... 1000.000
   Orbital update algorithm             .... Taylor
   White noise on init. David. guess    .... on
   Maximum white noise                  ....   0.010
   Quad. conv. algorithm                .... NR
   COSX micro iterations for RIJONX calc.... off
 SOSCF                  CNVSOSCF        .... on
   Start iteration      SOSCFMaxIt      ....   150
   Startup grad/error   SOSCFStart      ....  0.003300
 Level Shifting         CNVShift        .... on
   Level shift para.    LevelShift      ....    0.2500
   Turn off err/grad.   ShiftErr        ....    0.0010
 Zerner damping         CNVZerner       .... off
 Static damping         CNVDamp         .... on
   Fraction old density DampFac         ....    0.7000
   Max. Damping (<1)    DampMax         ....    0.9800
   Min. Damping (>=0)   DampMin         ....    0.0000
   Turn off err/grad.   DampErr         ....    0.1000
 Fernandez-Rico         CNVRico         .... off

SCF Procedure:
 Maximum # iterations   MaxIter         ....   125
 SCF integral mode      SCFMode         .... Direct
   Integral package                     .... SHARK and LIBINT hybrid scheme
 Reset frequency        DirectResetFreq ....    20
 Integral Threshold     Thresh          ....  2.500e-11 Eh
 Primitive CutOff       TCut            ....  2.500e-12 Eh

Convergence Tolerance:
 Convergence Check Mode ConvCheckMode   .... Total+1el-Energy
 Convergence forced     ConvForced      .... 0
 Energy Change          TolE            ....  1.000e-08 Eh
 1-El. energy change                    ....  1.000e-05 Eh
 Orbital Gradient       TolG            ....  1.000e-05
 Orbital Rotation angle TolX            ....  1.000e-05
 DIIS Error             TolErr          ....  5.000e-07


Diagonalization of the overlap matrix:
Smallest eigenvalue                        ... 2.576e-03
Time for diagonalization                   ...    0.002 sec
Threshold for overlap eigenvalues          ... 1.000e-08
Number of eigenvalues below threshold      ... 0
Time for construction of square roots      ...    0.540 sec
Total time needed                          ...    0.543 sec

--------------------------------
INITIAL GUESS: MINIMAL BASIS EHT
--------------------------------
The minimal basis has 52 functions
EHT matrix was diagonalized
Basis set overlap was calculated now projecting the orbitals
Using GuessMode=FMatrix for the initial guess
C*T matrix was formed
Effective Fockian was calculated
Effective Fockian was diagonalized
Initial density was built
                      ------------------
                      INITIAL GUESS DONE
                      ------------------
-------------------
DFT GRID GENERATION
-------------------

General Integration Accuracy     IntAcc      ... 4.959
Radial Grid Type                 RadialGrid  ... OptM3 with GC (2021)
Angular Grid (max. ang.)         AngularGrid ... 6 (Lebedev-590)
Angular grid pruning method      GridPruning ... 4 (adaptive)
Weight generation scheme         WeightScheme... Becke
Basis function cutoff            BFCut       ... 1.0000e-11
Integration weight cutoff        WCut        ... 1.0000e-14
Angular grids for H and He will be reduced by one unit
Partially contracted basis set               ... off
Rotationally invariant grid construction     ... off

Total number of grid points                  ...   210796
Total number of batches                      ...     3301
Average number of points per batch           ...       63
Average number of grid points per atom       ...    10540
Time for grid setup =    4.349 sec

--------------------
COSX GRID GENERATION
--------------------

GRIDX 1
-------
General Integration Accuracy     IntAcc      ... 4.020
Radial Grid Type                 RadialGrid  ... OptM3 with GC (2021)
Angular Grid (max. ang.)         AngularGrid ... 2 (Lebedev-110)
Angular grid pruning method      GridPruning ... 4 (adaptive)
Weight generation scheme         WeightScheme... Becke
Basis function cutoff            BFCut       ... 1.0000e-11
Integration weight cutoff        WCut        ... 1.0000e-14
Angular grids for H and He will be reduced by one unit
Partially contracted basis set               ... on
Rotationally invariant grid construction     ... off

Total number of grid points                  ...    22260
Total number of batches                      ...      358
Average number of points per batch           ...       62
Average number of grid points per atom       ...     1113
UseSFitting                                  ... on

GRIDX 2
-------
General Integration Accuracy     IntAcc      ... 4.338
Radial Grid Type                 RadialGrid  ... OptM3 with GC (2021)
Angular Grid (max. ang.)         AngularGrid ... 3 (Lebedev-194)
Angular grid pruning method      GridPruning ... 4 (adaptive)
Weight generation scheme         WeightScheme... Becke
Basis function cutoff            BFCut       ... 1.0000e-11
Integration weight cutoff        WCut        ... 1.0000e-14
Angular grids for H and He will be reduced by one unit
Partially contracted basis set               ... on
Rotationally invariant grid construction     ... off

Total number of grid points                  ...    48752
Total number of batches                      ...      770
Average number of points per batch           ...       63
Average number of grid points per atom       ...     2438
UseSFitting                                  ... on

GRIDX 3
-------
General Integration Accuracy     IntAcc      ... 4.871
Radial Grid Type                 RadialGrid  ... OptM3 with GC (2021)
Angular Grid (max. ang.)         AngularGrid ... 4 (Lebedev-302)
Angular grid pruning method      GridPruning ... 4 (adaptive)
Weight generation scheme         WeightScheme... Becke
Basis function cutoff            BFCut       ... 1.0000e-11
Integration weight cutoff        WCut        ... 1.0000e-14
Angular grids for H and He will be reduced by one unit
Partially contracted basis set               ... on
Rotationally invariant grid construction     ... off

Total number of grid points                  ...    95012
Total number of batches                      ...     1493
Average number of points per batch           ...       63
Average number of grid points per atom       ...     4751
UseSFitting                                  ... on

Time for X-Grid setup             =    5.759 sec

--------------
SCF ITERATIONS
--------------
ITER       Energy         Delta-E        Max-DP      RMS-DP      [F,P]     Damp
               ***  Starting incremental Fock matrix formation  ***
  0   -183.0595039295   0.000000000000 4.25109390  0.09599987  0.5599801 0.7000
  1   -184.9701274033  -1.910623473764 3.10488651  0.07067554  0.4054818 0.7000
  2   -186.2712212725  -1.301093869219 2.25261369  0.05124475  0.2854005 0.7000
  3   -187.1716197958  -0.900398523325 1.61827776  0.03682042  0.2011138 0.7000
                               ***Turning on DIIS***
  4   -187.8051017993  -0.633482003485 1.15053087  0.02623496  0.1424683 0.7000
  5   -188.2521369093  -0.447035109929 0.81547280  0.01877131  0.1014792 0.7000
  6   -188.5674160377  -0.315279128485 1.90834980  0.04417879  0.0721576 0.0000
                      *** Initiating the SOSCF procedure ***
                           *** Shutting down DIIS ***
                      *** Re-Reading the Fockian *** 
                      *** Removing any level shift *** 
ITER      Energy       Delta-E        Grad      Rot      Max-DP    RMS-DP
  7   -189.31202679  -0.7446107484  0.002423  0.002423  0.007286  0.000320
               *** Restarting incremental Fock matrix formation ***
  8   -189.31224309  -0.0002163032  0.001207  0.002493  0.004948  0.000177
  9   -189.31227647  -0.0000333778  0.000267  0.001216  0.002411  0.000088
 10   -189.31227921  -0.0000027425  0.000149  0.000326  0.000627  0.000030
 11   -189.31228057  -0.0000013564  0.000012  0.000019  0.000053  0.000002
 12   -189.31228057  -0.0000000041  0.000005  0.000010  0.000014  0.000001
                 **** Energy Check signals convergence ****
              ***Rediagonalizing the Fockian in SOSCF/NRSCF***

               *****************************************************
               *                     SUCCESS                       *
               *           SCF CONVERGED AFTER  13 CYCLES          *
               *****************************************************

Old exchange energy                            =    -13.589220003 Eh
New exchange energy                            =    -13.589237790 Eh
Exchange energy change after final integration =     -0.000017786 Eh
Total energy after final integration           =   -189.312298359 Eh
Final COS-X integration done in                =     3.438 sec

----------------
TOTAL SCF ENERGY
----------------

Total Energy       :         -189.31229836 Eh           -5151.44953 eV

Components:
Nuclear Repulsion  :          205.56905963 Eh            5593.81850 eV
Electronic Energy  :         -394.88135799 Eh          -10745.26803 eV
One Electron Energy:         -662.03153193 Eh          -18014.79384 eV
Two Electron Energy:          267.15017395 Eh            7269.52581 eV
Max COSX asymmetry :            0.00000371 Eh               0.00010 eV

Virial components:
Potential Energy   :         -376.84773272 Eh          -10254.54814 eV
Kinetic Energy     :          187.53543437 Eh            5103.09861 eV
Virial Ratio       :            2.00947482


DFT components:
N(Alpha)           :       24.000028620560 electrons
N(Beta)            :       24.000028620560 electrons
N(Total)           :       48.000057241120 electrons
E(X)               :      -17.948345070908 Eh       
E(C)               :       -1.909279967779 Eh       
E(XC)              :      -19.857625038687 Eh       
DFET-embed. en.    :        0.000000000000 Eh       

---------------
SCF CONVERGENCE
---------------

  Last Energy change         ...   -2.1739e-09  Tolerance :   1.0000e-08
  Last MAX-Density change    ...    1.7764e-15  Tolerance :   1.0000e-07
  Last RMS-Density change    ...    4.5472e-17  Tolerance :   5.0000e-09
  Last Orbital Gradient      ...    4.3979e-07  Tolerance :   1.0000e-05
  Last Orbital Rotation      ...    1.2949e-06  Tolerance :   1.0000e-05

             **** THE GBW FILE WAS UPDATED (pbeh-3c.gbw) ****
             **** DENSITY pbeh-3c.scfp WAS UPDATED ****
             **** ENERGY FILE WAS UPDATED (pbeh-3c.en.tmp) ****
             **** THE GBW FILE WAS UPDATED (pbeh-3c.gbw) ****
             **** DENSITY pbeh-3c.scfp WAS UPDATED ****
----------------
ORBITAL ENERGIES
----------------

  NO   OCC          E(Eh)            E(eV) 
   0   2.0000     -10.369012      -282.1552 
   1   2.0000     -10.368994      -282.1547 
   2   2.0000     -10.368994      -282.1547 
   3   2.0000     -10.368994      -282.1547 
   4   2.0000      -2.045619       -55.6641 
   5   2.0000      -2.042452       -55.5779 
   6   2.0000      -2.042452       -55.5779 
   7   2.0000      -2.042452       -55.5779 
   8   2.0000      -0.721191       -19.6246 
   9   2.0000      -0.716099       -19.4860 
  10   2.0000      -0.716099       -19.4860 
  11   2.0000      -0.716098       -19.4860 
  12   2.0000      -0.416143       -11.3238 
  13   2.0000      -0.416143       -11.3238 
  14   2.0000      -0.409139       -11.1332 
  15   2.0000      -0.409139       -11.1332 
  16   2.0000      -0.409139       -11.1332 
  17   2.0000      -0.397567       -10.8183 
  18   2.0000      -0.397567       -10.8183 
  19   2.0000      -0.397567       -10.8183 
  20   2.0000      -0.311528        -8.4771 
  21   2.0000      -0.252067        -6.8591 
  22   2.0000      -0.252067        -6.8591 
  23   2.0000      -0.252067        -6.8591 
  24   0.0000      -0.002347        -0.0639 
  25   0.0000       0.018214         0.4956 
  26   0.0000       0.018214         0.4956 
  27   0.0000       0.018215         0.4956 
  28   0.0000       0.090784         2.4704 
  29   0.0000       0.097389         2.6501 
  30   0.0000       0.097389         2.6501 
  31   0.0000       0.097389         2.6501 
  32   0.0000       0.159161         4.3310 
  33   0.0000       0.159161         4.3310 
  34   0.0000       0.159161         4.3310 
  35   0.0000       0.162802         4.4301 
  36   0.0000       0.162802         4.4301 
  37   0.0000       0.186728         5.0811 
  38   0.0000       0.186728         5.0811 
  39   0.0000       0.186728         5.0811 
  40   0.0000       0.199727         5.4349 
  41   0.0000       0.199727         5.4349 
  42   0.0000       0.225762         6.1433 
  43   0.0000       0.245118         6.6700 
  44   0.0000       0.245118         6.6700 
  45   0.0000       0.245118         6.6700 
  46   0.0000       0.274294         7.4639 
  47   0.0000       0.274294         7.4639 
  48   0.0000       0.274294         7.4639 
  49   0.0000       0.331552         9.0220 
  50   0.0000       0.349587         9.5128 
  51   0.0000       0.349587         9.5128 
  52   0.0000       0.349588         9.5128 
  53   0.0000       0.376912        10.2563 
  54   0.0000       0.376912        10.2563 
  55   0.0000       0.376914        10.2563 
  56   0.0000       0.649336        17.6693 
  57   0.0000       0.649336        17.6693 
  58   0.0000       0.649336        17.6693 
  59   0.0000       0.651816        17.7368 
  60   0.0000       0.675666        18.3858 
  61   0.0000       0.675666        18.3858 
  62   0.0000       0.675666        18.3858 
  63   0.0000       0.677884        18.4462 
  64   0.0000       0.677884        18.4462 
  65   0.0000       0.724696        19.7200 
  66   0.0000       0.724696        19.7200 
  67   0.0000       0.724696        19.7200 
  68   0.0000       0.726456        19.7679 
  69   0.0000       0.766866        20.8675 
  70   0.0000       0.766866        20.8675 
  71   0.0000       0.766866        20.8675 
  72   0.0000       0.867545        23.6071 
  73   0.0000       0.867545        23.6071 
  74   0.0000       0.867545        23.6071 
  75   0.0000       0.869005        23.6468 
  76   0.0000       0.869005        23.6468 
  77   0.0000       0.870454        23.6862 
  78   0.0000       0.870454        23.6863 
  79   0.0000       0.870455        23.6863 
  80   0.0000       1.071374        29.1536 
  81   0.0000       1.071374        29.1536 
  82   0.0000       1.071374        29.1536 
  83   0.0000       1.097019        29.8514 
  84   0.0000       1.097019        29.8514 
  85   0.0000       1.099433        29.9171 
  86   0.0000       1.099433        29.9171 
  87   0.0000       1.099433        29.9171 
  88   0.0000       1.160825        31.5876 
  89   0.0000       1.194898        32.5148 
  90   0.0000       1.194898        32.5148 
  91   0.0000       1.194898        32.5148 
  92   0.0000       1.369188        37.2575 
  93   0.0000       1.369188        37.2575 
  94   0.0000       1.369188        37.2575 
  95   0.0000       1.406704        38.2784 
  96   0.0000       1.795914        48.8693 
  97   0.0000       1.795914        48.8693 
  98   0.0000       1.795914        48.8693 
  99   0.0000       1.868869        50.8545 
 100   0.0000       1.868869        50.8545 
 101   0.0000       1.883262        51.2462 
 102   0.0000       1.883262        51.2462 
 103   0.0000       1.883262        51.2462 
 104   0.0000       1.961633        53.3787 
 105   0.0000       1.961633        53.3787 
 106   0.0000       1.961633        53.3787 
 107   0.0000       2.008415        54.6517 
 108   0.0000       2.414852        65.7115 
 109   0.0000       2.414852        65.7115 
 110   0.0000       2.414852        65.7115 
 111   0.0000       2.420997        65.8787 
 112   0.0000       2.420997        65.8787 
 113   0.0000       2.420997        65.8787 
 114   0.0000       2.422997        65.9331 
 115   0.0000       2.422997        65.9331 
 116   0.0000      13.796283       375.4159 
 117   0.0000      13.796283       375.4159 
 118   0.0000      13.796283       375.4159 
 119   0.0000      13.839861       376.6018 

                    ********************************
                    * MULLIKEN POPULATION ANALYSIS *
                    ********************************

-----------------------
MULLIKEN ATOMIC CHARGES
-----------------------
   0 Li:    0.678758
   1 Li:    0.678759
   2 Li:    0.678759
   3 Li:    0.678759
   4 C :   -1.337002
   5 C :   -1.337002
   6 C :   -1.337002
   7 C :   -1.337002
   8 H :    0.219414
   9 H :    0.219414
  10 H :    0.219414
  11 H :    0.219414
  12 H :    0.219414
  13 H :    0.219414
  14 H :    0.219414
  15 H :    0.219414
  16 H :    0.219414
  17 H :    0.219414
  18 H :    0.219414
  19 H :    0.219414
Sum of atomic charges:   -0.0000000

--------------------------------
MULLIKEN REDUCED ORBITAL CHARGES
--------------------------------
  0 Lis       :     2.065270  s :     2.065270
      pz      :     0.085324  p :     0.255972
      px      :     0.085324
      py      :     0.085324
  1 Lis       :     2.065269  s :     2.065269
      pz      :     0.085324  p :     0.255972
      px      :     0.085324
      py      :     0.085324
  2 Lis       :     2.065269  s :     2.065269
      pz      :     0.085324  p :     0.255972
      px      :     0.085324
      py      :     0.085324
  3 Lis       :     2.065269  s :     2.065269
      pz      :     0.085324  p :     0.255972
      px      :     0.085324
      py      :     0.085324
  4 C s       :     3.535574  s :     3.535574
      pz      :     1.259232  p :     3.777696
      px      :     1.259232
      py      :     1.259232
      dz2     :     0.011539  d :     0.023731
      dxz     :     0.000218
      dyz     :     0.000218
      dx2y2   :     0.011539
      dxy     :     0.000218
  5 C s       :     3.535574  s :     3.535574
      pz      :     1.259232  p :     3.777696
      px      :     1.259232
      py      :     1.259232
      dz2     :     0.011539  d :     0.023731
      dxz     :     0.000218
      dyz     :     0.000218
      dx2y2   :     0.011539
      dxy     :     0.000218
  6 C s       :     3.535574  s :     3.535574
      pz      :     1.259232  p :     3.777696
      px      :     1.259232
      py      :     1.259232
      dz2     :     0.011539  d :     0.023731
      dxz     :     0.000218
      dyz     :     0.000218
      dx2y2   :     0.011539
      dxy     :     0.000218
  7 C s       :     3.535574  s :     3.535574
      pz      :     1.259232  p :     3.777696
      px      :     1.259232
      py      :     1.259232
      dz2     :     0.011539  d :     0.023731
      dxz     :     0.000218
      dyz     :     0.000218
      dx2y2   :     0.011539
      dxy     :     0.000218
  8 H s       :     0.780586  s :     0.780586
  9 H s       :     0.780586  s :     0.780586
 10 H s       :     0.780586  s :     0.780586
 11 H s       :     0.780586  s :     0.780586
 12 H s       :     0.780586  s :     0.780586
 13 H s       :     0.780586  s :     0.780586
 14 H s       :     0.780586  s :     0.780586
 15 H s       :     0.780586  s :     0.780586
 16 H s       :     0.780586  s :     0.780586
 17 H s       :     0.780586  s :     0.780586
 18 H s       :     0.780586  s :     0.780586
 19 H s       :     0.780586  s :     0.780586


                     *******************************
                     * LOEWDIN POPULATION ANALYSIS *
                     *******************************

----------------------
LOEWDIN ATOMIC CHARGES
----------------------
   0 Li:    0.237667
   1 Li:    0.237667
   2 Li:    0.237667
   3 Li:    0.237667
   4 C :   -0.692453
   5 C :   -0.692453
   6 C :   -0.692453
   7 C :   -0.692453
   8 H :    0.151596
   9 H :    0.151596
  10 H :    0.151596
  11 H :    0.151596
  12 H :    0.151596
  13 H :    0.151596
  14 H :    0.151596
  15 H :    0.151596
  16 H :    0.151596
  17 H :    0.151596
  18 H :    0.151596
  19 H :    0.151596

-------------------------------
LOEWDIN REDUCED ORBITAL CHARGES
-------------------------------
  0 Lis       :     2.122681  s :     2.122681
      pz      :     0.213218  p :     0.639653
      px      :     0.213218
      py      :     0.213218
  1 Lis       :     2.122681  s :     2.122681
      pz      :     0.213218  p :     0.639653
      px      :     0.213218
      py      :     0.213218
  2 Lis       :     2.122681  s :     2.122681
      pz      :     0.213218  p :     0.639653
      px      :     0.213218
      py      :     0.213218
  3 Lis       :     2.122681  s :     2.122681
      pz      :     0.213218  p :     0.639653
      px      :     0.213218
      py      :     0.213218
  4 C s       :     3.012660  s :     3.012660
      pz      :     1.214157  p :     3.642472
      px      :     1.214157
      py      :     1.214157
      dz2     :     0.017914  d :     0.037321
      dxz     :     0.000498
      dyz     :     0.000498
      dx2y2   :     0.017914
      dxy     :     0.000498
  5 C s       :     3.012660  s :     3.012660
      pz      :     1.214157  p :     3.642472
      px      :     1.214157
      py      :     1.214157
      dz2     :     0.017914  d :     0.037321
      dxz     :     0.000498
      dyz     :     0.000498
      dx2y2   :     0.017914
      dxy     :     0.000498
  6 C s       :     3.012660  s :     3.012660
      pz      :     1.214157  p :     3.642472
      px      :     1.214157
      py      :     1.214157
      dz2     :     0.017914  d :     0.037321
      dxz     :     0.000498
      dyz     :     0.000498
      dx2y2   :     0.017914
      dxy     :     0.000498
  7 C s       :     3.012660  s :     3.012660
      pz      :     1.214157  p :     3.642472
      px      :     1.214157
      py      :     1.214157
      dz2     :     0.017914  d :     0.037321
      dxz     :     0.000498
      dyz     :     0.000498
      dx2y2   :     0.017914
      dxy     :     0.000498
  8 H s       :     0.848404  s :     0.848404
  9 H s       :     0.848404  s :     0.848404
 10 H s       :     0.848404  s :     0.848404
 11 H s       :     0.848404  s :     0.848404
 12 H s       :     0.848404  s :     0.848404
 13 H s       :     0.848404  s :     0.848404
 14 H s       :     0.848404  s :     0.848404
 15 H s       :     0.848404  s :     0.848404
 16 H s       :     0.848404  s :     0.848404
 17 H s       :     0.848404  s :     0.848404
 18 H s       :     0.848404  s :     0.848404
 19 H s       :     0.848404  s :     0.848404


                      *****************************
                      * MAYER POPULATION ANALYSIS *
                      *****************************

  NA   - Mulliken gross atomic population
  ZA   - Total nuclear charge
  QA   - Mulliken gross atomic charge
  VA   - Mayer's total valence
  BVA  - Mayer's bonded valence
  FA   - Mayer's free valence

  ATOM       NA         ZA         QA         VA         BVA        FA
  0 Li     2.3212     3.0000     0.6788     0.5964     0.5964    -0.0000
  1 Li     2.3212     3.0000     0.6788     0.5964     0.5964     0.0000
  2 Li     2.3212     3.0000     0.6788     0.5964     0.5964    -0.0000
  3 Li     2.3212     3.0000     0.6788     0.5964     0.5964    -0.0000
  4 C      7.3370     6.0000    -1.3370     3.2455     3.2455    -0.0000
  5 C      7.3370     6.0000    -1.3370     3.2455     3.2455    -0.0000
  6 C      7.3370     6.0000    -1.3370     3.2455     3.2455     0.0000
  7 C      7.3370     6.0000    -1.3370     3.2455     3.2455     0.0000
  8 H      0.7806     1.0000     0.2194     0.9125     0.9125     0.0000
  9 H      0.7806     1.0000     0.2194     0.9125     0.9125    -0.0000
 10 H      0.7806     1.0000     0.2194     0.9125     0.9125    -0.0000
 11 H      0.7806     1.0000     0.2194     0.9125     0.9125     0.0000
 12 H      0.7806     1.0000     0.2194     0.9125     0.9125     0.0000
 13 H      0.7806     1.0000     0.2194     0.9125     0.9125     0.0000
 14 H      0.7806     1.0000     0.2194     0.9125     0.9125     0.0000
 15 H      0.7806     1.0000     0.2194     0.9125     0.9125    -0.0000
 16 H      0.7806     1.0000     0.2194     0.9125     0.9125    -0.0000
 17 H      0.7806     1.0000     0.2194     0.9125     0.9125     0.0000
 18 H      0.7806     1.0000     0.2194     0.9125     0.9125     0.0000
 19 H      0.7806     1.0000     0.2194     0.9125     0.9125    -0.0000

  Mayer bond orders larger than 0.100000
B(  0-Li,  4-C ) :   0.1670 B(  0-Li,  5-C ) :   0.1670 B(  0-Li,  7-C ) :   0.1670 
B(  1-Li,  4-C ) :   0.1670 B(  1-Li,  6-C ) :   0.1670 B(  1-Li,  7-C ) :   0.1670 
B(  2-Li,  4-C ) :   0.1670 B(  2-Li,  5-C ) :   0.1670 B(  2-Li,  6-C ) :   0.1670 
B(  3-Li,  5-C ) :   0.1670 B(  3-Li,  6-C ) :   0.1670 B(  3-Li,  7-C ) :   0.1670 
B(  4-C ,  8-H ) :   0.9087 B(  4-C ,  9-H ) :   0.9087 B(  4-C , 10-H ) :   0.9087 
B(  5-C , 14-H ) :   0.9087 B(  5-C , 15-H ) :   0.9087 B(  5-C , 16-H ) :   0.9087 
B(  6-C , 17-H ) :   0.9087 B(  6-C , 18-H ) :   0.9087 B(  6-C , 19-H ) :   0.9087 
B(  7-C , 11-H ) :   0.9087 B(  7-C , 12-H ) :   0.9087 B(  7-C , 13-H ) :   0.9087 


-------
TIMINGS
-------

Total SCF time: 0 days 0 hours 1 min 29 sec 

Total time                  ....      89.308 sec
Sum of individual times     ....      83.477 sec  ( 93.5%)

Fock matrix formation       ....      70.142 sec  ( 78.5%)
  Split-RI-J                ....       6.832 sec  (  9.7% of F)
  Chain of spheres X        ....      26.763 sec  ( 38.2% of F)
  XC integration            ....      22.733 sec  ( 32.4% of F)
    Basis function eval.    ....       3.586 sec  ( 15.8% of XC)
    Density eval.           ....       2.106 sec  (  9.3% of XC)
    XC-Functional eval.     ....       1.375 sec  (  6.0% of XC)
    XC-Potential eval.      ....       1.329 sec  (  5.8% of XC)
Diagonalization             ....       0.871 sec  (  1.0%)
Density matrix formation    ....       0.019 sec  (  0.0%)
Population analysis         ....       0.117 sec  (  0.1%)
Initial guess               ....       0.017 sec  (  0.0%)
Orbital Transformation      ....       0.000 sec  (  0.0%)
Orbital Orthonormalization  ....       0.000 sec  (  0.0%)
DIIS solution               ....       1.199 sec  (  1.3%)
SOSCF solution              ....       1.005 sec  (  1.1%)
Grid generation             ....      10.108 sec  ( 11.3%)

Maximum memory used throughout the entire SCF-calculation: 56.0 MB


-------------------------------------------------------------------------------
                          DFT DISPERSION CORRECTION                            
                                                                               
                              DFTD3 V3.1  Rev 1                                
                          USING Becke-Johnson damping                          
-------------------------------------------------------------------------------
The PBEh-3c composite method is recognized
Using three-body term ABC
Active option DFTDOPT                   ...         4   

molecular C6(AA) [au] = 5254.452756 


            DFT-D V3
 parameters
 s6 scaling factor         :     1.0000 
 a1 scaling factor         :     0.4860 
 s8 scaling factor         :     0.0000 
 a2 scaling factor         :     4.5000 
 Damping factor alpha9(ATM):    16.0000 
 ad hoc parameters k1-k3   :    16.0000     1.3333    -4.0000 

 Edisp/kcal,au: -6.601934277719  -0.010520850834 
 E6   /kcal   :  -6.650134155 
 E8   /kcal   :  -0.000000000 
 E6(ABC)      :   0.048199877 
 % E8         :   0.000000000 
 % E6(ABC)    :  -0.730087205 

-------------------------   ----------------
Dispersion correction           -0.010520851
-------------------------   ----------------

------------------   -----------------
gCP correction             0.005970105
------------------   -----------------

-------------------------   --------------------
FINAL SINGLE POINT ENERGY      -189.316849104501
-------------------------   --------------------


                            ***************************************
                            *     ORCA property calculations      *
                            ***************************************

                                    ---------------------
                                    Active property flags
                                    ---------------------
   (+) Dipole Moment


------------------------------------------------------------------------------
                       ORCA ELECTRIC PROPERTIES CALCULATION
------------------------------------------------------------------------------

Dipole Moment Calculation                       ... on
Quadrupole Moment Calculation                   ... off
Polarizability Calculation                      ... off
GBWName                                         ... pbeh-3c.gbw
Electron density                                ... pbeh-3c.scfp
The origin for moment calculation is the CENTER OF MASS  = ( 0.000000,  0.000000 -0.000000)

-------------
DIPOLE MOMENT
-------------
                                X             Y             Z
Electronic contribution:     -0.00000      -0.00000       0.00000
Nuclear contribution   :      0.00000       0.00000      -0.00000
                        -----------------------------------------
Total Dipole Moment    :     -0.00000      -0.00000       0.00000
                        -----------------------------------------
Magnitude (a.u.)       :      0.00000
Magnitude (Debye)      :      0.00000



--------------------
Rotational spectrum 
--------------------
 
Rotational constants in cm-1:     0.065532     0.065532     0.065532 
Rotational constants in MHz :  1964.586881  1964.586881  1964.586881 

 Dipole components along the rotational axes: 
x,y,z [a.u.] :    -0.000000     0.000000     0.000000 
x,y,z [Debye]:    -0.000000     0.000000     0.000000 

 

Timings for individual modules:

Sum of individual times         ...       93.715 sec (=   1.562 min)
GTO integral calculation        ...        3.294 sec (=   0.055 min)   3.5 %
SCF iterations                  ...       90.421 sec (=   1.507 min)  96.5 %
                             ****ORCA TERMINATED NORMALLY****
TOTAL RUN TIME: 0 days 0 hours 1 minutes 35 seconds 794 msec
