
                                 *****************
                                 * O   R   C   A *
                                 *****************

                                            #,                                       
                                            ###                                      
                                            ####                                     
                                            #####                                    
                                            ######                                   
                                           ########,                                 
                                     ,,################,,,,,                         
                               ,,#################################,,                 
                          ,,##########################################,,             
                       ,#########################################, ''#####,          
                    ,#############################################,,   '####,        
                  ,##################################################,,,,####,       
                ,###########''''           ''''###############################       
              ,#####''   ,,,,##########,,,,          '''####'''          '####       
            ,##' ,,,,###########################,,,                        '##       
           ' ,,###''''                  '''############,,,                           
         ,,##''                                '''############,,,,        ,,,,,,###''
      ,#''                                            '''#######################'''  
     '                                                          ''''####''''         
             ,#######,   #######,   ,#######,      ##                                
            ,#'     '#,  ##    ##  ,#'     '#,    #''#        ######   ,####,        
            ##       ##  ##   ,#'  ##            #'  '#       #        #'  '#        
            ##       ##  #######   ##           ,######,      #####,   #    #        
            '#,     ,#'  ##    ##  '#,     ,#' ,#      #,         ##   #,  ,#        
             '#######'   ##     ##  '#######'  #'      '#     #####' # '####'        



                  #######################################################
                  #                        -***-                        #
                  #          Department of theory and spectroscopy      #
                  #    Directorship and core code : Frank Neese         #
                  #        Max Planck Institute fuer Kohlenforschung    #
                  #                Kaiser Wilhelm Platz 1               #
                  #                 D-45470 Muelheim/Ruhr               #
                  #                      Germany                        #
                  #                                                     #
                  #                  All rights reserved                #
                  #                        -***-                        #
                  #######################################################


                         Program Version 5.0.3 -  RELEASE  -


 With contributions from (in alphabetic order):
   Daniel Aravena         : Magnetic Suceptibility
   Michael Atanasov       : Ab Initio Ligand Field Theory (pilot matlab implementation)
   Alexander A. Auer      : GIAO ZORA, VPT2 properties, NMR spectrum
   Ute Becker             : Parallelization
   Giovanni Bistoni       : ED, misc. LED, open-shell LED, HFLD
   Martin Brehm           : Molecular dynamics
   Dmytro Bykov           : SCF Hessian
   Vijay G. Chilkuri      : MRCI spin determinant printing, contributions to CSF-ICE
   Dipayan Datta          : RHF DLPNO-CCSD density
   Achintya Kumar Dutta   : EOM-CC, STEOM-CC
   Dmitry Ganyushin       : Spin-Orbit,Spin-Spin,Magnetic field MRCI
   Miquel Garcia          : C-PCM and meta-GGA Hessian, CC/C-PCM, Gaussian charge scheme
   Yang Guo               : DLPNO-NEVPT2, F12-NEVPT2, CIM, IAO-localization
   Andreas Hansen         : Spin unrestricted coupled pair/coupled cluster methods
   Benjamin Helmich-Paris : MC-RPA, TRAH-SCF, COSX integrals
   Lee Huntington         : MR-EOM, pCC
   Robert Izsak           : Overlap fitted RIJCOSX, COSX-SCS-MP3, EOM
   Marcus Kettner         : VPT2
   Christian Kollmar      : KDIIS, OOCD, Brueckner-CCSD(T), CCSD density, CASPT2, CASPT2-K
   Simone Kossmann        : Meta GGA functionals, TD-DFT gradient, OOMP2, MP2 Hessian
   Martin Krupicka        : Initial AUTO-CI
   Lucas Lang             : DCDCAS
   Marvin Lechner         : AUTO-CI (C++ implementation), FIC-MRCC
   Dagmar Lenk            : GEPOL surface, SMD
   Dimitrios Liakos       : Extrapolation schemes; Compound Job, initial MDCI parallelization
   Dimitrios Manganas     : Further ROCIS development; embedding schemes
   Dimitrios Pantazis     : SARC Basis sets
   Anastasios Papadopoulos: AUTO-CI, single reference methods and gradients
   Taras Petrenko         : DFT Hessian,TD-DFT gradient, ASA, ECA, R-Raman, ABS, FL, XAS/XES, NRVS
   Peter Pinski           : DLPNO-MP2, DLPNO-MP2 Gradient
   Christoph Reimann      : Effective Core Potentials
   Marius Retegan         : Local ZFS, SOC
   Christoph Riplinger    : Optimizer, TS searches, QM/MM, DLPNO-CCSD(T), (RO)-DLPNO pert. Triples
   Tobias Risthaus        : Range-separated hybrids, TD-DFT gradient, RPA, STAB
   Michael Roemelt        : Original ROCIS implementation
   Masaaki Saitow         : Open-shell DLPNO-CCSD energy and density
   Barbara Sandhoefer     : DKH picture change effects
   Avijit Sen             : IP-ROCIS
   Kantharuban Sivalingam : CASSCF convergence, NEVPT2, FIC-MRCI
   Bernardo de Souza      : ESD, SOC TD-DFT
   Georgi Stoychev        : AutoAux, RI-MP2 NMR, DLPNO-MP2 response
   Willem Van den Heuvel  : Paramagnetic NMR
   Boris Wezisla          : Elementary symmetry handling
   Frank Wennmohs         : Technical directorship


 We gratefully acknowledge several colleagues who have allowed us to
 interface, adapt or use parts of their codes:
   Stefan Grimme, W. Hujo, H. Kruse, P. Pracht,  : VdW corrections, initial TS optimization,
                  C. Bannwarth, S. Ehlert          DFT functionals, gCP, sTDA/sTD-DF
   Ed Valeev, F. Pavosevic, A. Kumar             : LibInt (2-el integral package), F12 methods
   Garnet Chan, S. Sharma, J. Yang, R. Olivares  : DMRG
   Ulf Ekstrom                                   : XCFun DFT Library
   Mihaly Kallay                                 : mrcc  (arbitrary order and MRCC methods)
   Jiri Pittner, Ondrej Demel                    : Mk-CCSD
   Frank Weinhold                                : gennbo (NPA and NBO analysis)
   Christopher J. Cramer and Donald G. Truhlar   : smd solvation model
   Lars Goerigk                                  : TD-DFT with DH, B97 family of functionals
   V. Asgeirsson, H. Jonsson                     : NEB implementation
   FAccTs GmbH                                   : IRC, NEB, NEB-TS, DLPNO-Multilevel, CI-OPT
                                                   MM, QMMM, 2- and 3-layer-ONIOM, Crystal-QMMM,
                                                   LR-CPCM, SF, NACMEs, symmetry and pop. for TD-DFT,
                                                   nearIR, NL-DFT gradient (VV10), updates on ESD,
                                                   ML-optimized integration grids
   S Lehtola, MJT Oliveira, MAL Marques          : LibXC Library
   Liviu Ungur et al                             : ANISO software


 Your calculation uses the libint2 library for the computation of 2-el integrals
 For citations please refer to: http://libint.valeyev.net

 Your ORCA version has been built with support for libXC version: 5.1.0
 For citations please refer to: https://tddft.org/programs/libxc/

 This ORCA versions uses:
   CBLAS   interface :  Fast vector & matrix operations
   LAPACKE interface :  Fast linear algebra routines
   SCALAPACK package :  Parallel linear algebra routines
   Shared memory     :  Shared parallel matrices
   BLAS/LAPACK       :  OpenBLAS 0.3.15  USE64BITINT DYNAMIC_ARCH NO_AFFINITY Haswell SINGLE_THREADED
        Core in use  :  Haswell
   Copyright (c) 2011-2014, The OpenBLAS Project




***************************************
The coordinates will be read from file: h10.xyz
***************************************


Your calculation utilizes the geometrical counterpoise correction gCP
Please cite in your paper:
H.Kruse, S. Grimme J.Chem.Phys., 136, (2012), 154101 
   

Your calculation utilizes the atom-pairwise dispersion correction
with the Becke-Johnson damping scheme (D3BJ)
Cite in your paper:
S.Grimme, S.Ehrlich, L.Goerigk, J Comput Chem, (2011), 32, 1456–1465 
S.Grimme, J.Antony, S.Ehrlich and H.Krieg, J.Chem.Phys., 132, (2010), 154104 
   

Your calculation employs the composite approach PBEh-3c.
Please cite in your paper:
S. Grimme, J. G. Brandenburg, C. Bannwarth, A. Hansen J.Chem.Phys., 143, (2015), 054107 
   

================================================================================

----- Orbital basis set information -----
Your calculation utilizes the basis: def2-mSVP

----- AuxJ basis set information -----
Your calculation utilizes the auxiliary basis: def2/J
   F. Weigend, Phys. Chem. Chem. Phys. 8, 1057 (2006).

================================================================================
                                        WARNINGS
                       Please study these warnings very carefully!
================================================================================


INFO   : the flag for use of the SHARK integral package has been found!

================================================================================
                                       INPUT FILE
================================================================================
NAME = pbeh-3c.inp
|  1> ! PBEh-3c def2/J TightSCF DefGrid3
|  2> 
|  3> %maxcore 60000
|  4> 
|  5> %pal
|  6> nprocs 4
|  7> end
|  8> 
|  9> *xyzfile 0 1 h10.xyz
| 10> 
| 11>                          ****END OF INPUT****
================================================================================

                       ****************************
                       * Single Point Calculation *
                       ****************************

---------------------------------
CARTESIAN COORDINATES (ANGSTROEM)
---------------------------------
  C     -2.055688   -1.909015    0.178733
  C     -0.653282   -1.430632   -0.179904
  C     -0.476500    0.085864   -0.076777
  C      0.825344    0.546315   -0.756341
  C      2.085053    0.046288   -0.054236
  C      0.881358    2.063286   -0.909945
  C     -0.591359    0.554151    1.371909
  H     -2.802878   -1.408105   -0.437625
  H     -2.157240   -2.981489    0.019007
  H     -2.295429   -1.709836    1.221541
  H     -0.421346   -1.740787   -1.202042
  H      0.073695   -1.925873    0.468125
  H     -1.296048    0.543628   -0.643514
  H      0.810910    0.114906   -1.762449
  H      2.176611    0.482764    0.940575
  H      2.971069    0.334911   -0.619701
  H      2.096390   -1.037670    0.048358
  H      0.975085    2.555246    0.058087
  H     -0.016086    2.445061   -1.397481
  H      1.742801    2.358158   -1.509250
  H      0.147480    0.056620    2.001047
  H     -1.575272    0.327126    1.778402
  H     -0.444668    1.629082    1.463480

----------------------------
CARTESIAN COORDINATES (A.U.)
----------------------------
  NO LB      ZA    FRAG     MASS         X           Y           Z
   0 C     6.0000    0    12.011   -3.884687   -3.607516    0.337756
   1 C     6.0000    0    12.011   -1.234524   -2.703503   -0.339969
   2 C     6.0000    0    12.011   -0.900455    0.162259   -0.145088
   3 C     6.0000    0    12.011    1.559674    1.032386   -1.429277
   4 C     6.0000    0    12.011    3.940180    0.087471   -0.102492
   5 C     6.0000    0    12.011    1.665526    3.899046   -1.719547
   6 C     6.0000    0    12.011   -1.117507    1.047194    2.592533
   7 H     1.0000    0     1.008   -5.296672   -2.660932   -0.826991
   8 H     1.0000    0     1.008   -4.076593   -5.634197    0.035919
   9 H     1.0000    0     1.008   -4.337733   -3.231121    2.308378
  10 H     1.0000    0     1.008   -0.796228   -3.289611   -2.271531
  11 H     1.0000    0     1.008    0.139263   -3.639373    0.884628
  12 H     1.0000    0     1.008   -2.449177    1.027309   -1.216066
  13 H     1.0000    0     1.008    1.532398    0.217141   -3.330545
  14 H     1.0000    0     1.008    4.113199    0.912293    1.777429
  15 H     1.0000    0     1.008    5.614507    0.632891   -1.171065
  16 H     1.0000    0     1.008    3.961604   -1.960913    0.091383
  17 H     1.0000    0     1.008    1.842643    4.828715    0.109769
  18 H     1.0000    0     1.008   -0.030398    4.620495   -2.640856
  19 H     1.0000    0     1.008    3.293416    4.456273   -2.852069
  20 H     1.0000    0     1.008    0.278697    0.106996    3.781430
  21 H     1.0000    0     1.008   -2.976832    0.618179    3.360693
  22 H     1.0000    0     1.008   -0.840300    3.078519    2.765576

--------------------------------
INTERNAL COORDINATES (ANGSTROEM)
--------------------------------
 C      0   0   0     0.000000000000     0.00000000     0.00000000
 C      1   0   0     1.524536512814     0.00000000     0.00000000
 C      2   1   0     1.530244072435   113.66491140     0.00000000
 C      3   2   1     1.539032489623   111.37423918   193.43125175
 C      4   3   2     1.526383149633   113.38993719   293.65955018
 C      4   3   2     1.525756685218   111.89870642   168.55115163
 C      3   2   1     1.526820002890   111.05137042    66.53642042
 H      1   2   3     1.090459542203   110.68363658    55.95197658
 H      1   2   3     1.089047657474   111.11803000   175.68494135
 H      1   2   3     1.088392198428   111.75210207   295.72409425
 H      2   1   3     1.093050075796   109.03445056   238.63790896
 H      2   1   3     1.092566045050   109.28801288   122.53610629
 H      3   2   1     1.096539173350   107.01000036   309.09929843
 H      4   3   2     1.094794276521   106.06555709    51.68213116
 H      5   4   3     1.090203474326   110.97046849   294.40942202
 H      5   4   3     1.089989917552   110.21100454   175.56447789
 H      5   4   3     1.088861552873   112.21277226    55.54659142
 H      6   4   3     1.089906552302   111.25498820    68.30936635
 H      6   4   3     1.090343684094   111.27984396   307.75739162
 H      6   4   3     1.090045505556   110.69048341   187.58406392
 H      7   3   2     1.090520153253   110.88506645    57.92394139
 H      7   3   2     1.088512976412   110.99942889   298.42031701
 H      7   3   2     1.088751640250   111.86866224   178.68154568

---------------------------
INTERNAL COORDINATES (A.U.)
---------------------------
 C      0   0   0     0.000000000000     0.00000000     0.00000000
 C      1   0   0     2.880956490381     0.00000000     0.00000000
 C      2   1   0     2.891742214959   113.66491140     0.00000000
 C      3   2   1     2.908349916595   111.37423918   193.43125175
 C      4   3   2     2.884446128238   113.38993719   293.65955018
 C      4   3   2     2.883262282062   111.89870642   168.55115163
 C      3   2   1     2.885271661255   111.05137042    66.53642042
 H      1   2   3     2.060669894884   110.68363658    55.95197658
 H      1   2   3     2.058001819413   111.11803000   175.68494135
 H      1   2   3     2.056763181325   111.75210207   295.72409425
 H      2   1   3     2.065565293916   109.03445056   238.63790896
 H      2   1   3     2.064650608367   109.28801288   122.53610629
 H      3   2   1     2.072158732748   107.01000036   309.09929843
 H      4   3   2     2.068861355610   106.06555709    51.68213116
 H      5   4   3     2.060185996726   110.97046849   294.40942202
 H      5   4   3     2.059782432909   110.21100454   175.56447789
 H      5   4   3     2.057650132686   112.21277226    55.54659142
 H      6   4   3     2.059624895417   111.25498820    68.30936635
 H      6   4   3     2.060450954789   111.27984396   307.75739162
 H      6   4   3     2.059887479013   110.69048341   187.58406392
 H      7   3   2     2.060784433171   110.88506645    57.92394139
 H      7   3   2     2.056991418638   110.99942889   298.42031701
 H      7   3   2     2.057442427930   111.86866224   178.68154568

---------------------
BASIS SET INFORMATION
---------------------
There are 2 groups of distinct atoms

 Group   1 Type C   : 8s4p1d contracted to 4s2p1d pattern {5111/31/1}
 Group   2 Type H   : 4s contracted to 2s pattern {31}

Atom   0C    basis set group =>   1
Atom   1C    basis set group =>   1
Atom   2C    basis set group =>   1
Atom   3C    basis set group =>   1
Atom   4C    basis set group =>   1
Atom   5C    basis set group =>   1
Atom   6C    basis set group =>   1
Atom   7H    basis set group =>   2
Atom   8H    basis set group =>   2
Atom   9H    basis set group =>   2
Atom  10H    basis set group =>   2
Atom  11H    basis set group =>   2
Atom  12H    basis set group =>   2
Atom  13H    basis set group =>   2
Atom  14H    basis set group =>   2
Atom  15H    basis set group =>   2
Atom  16H    basis set group =>   2
Atom  17H    basis set group =>   2
Atom  18H    basis set group =>   2
Atom  19H    basis set group =>   2
Atom  20H    basis set group =>   2
Atom  21H    basis set group =>   2
Atom  22H    basis set group =>   2
---------------------------------
AUXILIARY/J BASIS SET INFORMATION
---------------------------------
There are 2 groups of distinct atoms

 Group   1 Type C   : 12s5p4d2f1g contracted to 6s4p3d1f1g pattern {711111/2111/211/2/1}
 Group   2 Type H   : 5s2p1d contracted to 3s1p1d pattern {311/2/1}

Atom   0C    basis set group =>   1
Atom   1C    basis set group =>   1
Atom   2C    basis set group =>   1
Atom   3C    basis set group =>   1
Atom   4C    basis set group =>   1
Atom   5C    basis set group =>   1
Atom   6C    basis set group =>   1
Atom   7H    basis set group =>   2
Atom   8H    basis set group =>   2
Atom   9H    basis set group =>   2
Atom  10H    basis set group =>   2
Atom  11H    basis set group =>   2
Atom  12H    basis set group =>   2
Atom  13H    basis set group =>   2
Atom  14H    basis set group =>   2
Atom  15H    basis set group =>   2
Atom  16H    basis set group =>   2
Atom  17H    basis set group =>   2
Atom  18H    basis set group =>   2
Atom  19H    basis set group =>   2
Atom  20H    basis set group =>   2
Atom  21H    basis set group =>   2
Atom  22H    basis set group =>   2


           ************************************************************
           *        Program running with 4 parallel MPI-processes     *
           *              working on a common directory               *
           ************************************************************
------------------------------------------------------------------------------
                           ORCA GTO INTEGRAL CALCULATION
                           -- RI-GTO INTEGRALS CHOSEN --
------------------------------------------------------------------------------
------------------------------------------------------------------------------
                   ___                                                        
                  /   \      - P O W E R E D   B Y -                         
                 /     \                                                     
                 |  |  |   _    _      __       _____    __    __             
                 |  |  |  | |  | |    /  \     |  _  \  |  |  /  |          
                  \  \/   | |  | |   /    \    | | | |  |  | /  /          
                 / \  \   | |__| |  /  /\  \   | |_| |  |  |/  /          
                |  |  |   |  __  | /  /__\  \  |    /   |      \           
                |  |  |   | |  | | |   __   |  |    \   |  |\   \          
                \     /   | |  | | |  |  |  |  | |\  \  |  | \   \       
                 \___/    |_|  |_| |__|  |__|  |_| \__\ |__|  \__/        
                                                                              
                      - O R C A' S   B I G   F R I E N D -                    
                                      &                                       
                       - I N T E G R A L  F E E D E R -                       
                                                                              
 v1 FN, 2020, v2 2021                                                         
------------------------------------------------------------------------------


Reading SHARK input file pbeh-3c.SHARKINP.tmp ... ok
----------------------
SHARK INTEGRAL PACKAGE
----------------------

Number of atoms                             ...     23
Number of basis functions                   ...    137
Number of shells                            ...     81
Maximum angular momentum                    ...      2
Integral batch strategy                     ... SHARK/LIBINT Hybrid
RI-J (if used) integral strategy            ... SPLIT-RIJ (Revised 2003 algorithm where possible)
Printlevel                                  ...      1
Contraction scheme used                     ... SEGMENTED contraction
Coulomb Range Separation                    ... NOT USED
Exchange Range Separation                   ... NOT USED
Finite Nucleus Model                        ... NOT USED
Auxiliary Coulomb fitting basis             ... AVAILABLE
   # of basis functions in Aux-J            ...    519
   # of shells in Aux-J                     ...    185
   Maximum angular momentum in Aux-J        ...      4
Auxiliary J/K fitting basis                 ... NOT available
Auxiliary Correlation fitting basis         ... NOT available
Auxiliary 'external' fitting basis          ... NOT available
Integral threshold                          ...     2.500000e-11
Primitive cut-off                           ...     2.500000e-12
Primitive pair pre-selection threshold      ...     2.500000e-12

Calculating pre-screening integrals         ... done (  0.0 sec) Dimension = 81
Organizing shell pair data                  ... done (  0.3 sec)
Shell pair information
Total number of shell pairs                 ...      3321
Shell pairs after pre-screening             ...      3092
Total number of primitive shell pairs       ...     12229
Primitive shell pairs kept                  ...      8093
          la=0 lb=0:   1649 shell pairs
          la=1 lb=0:    822 shell pairs
          la=1 lb=1:    105 shell pairs
          la=2 lb=0:    391 shell pairs
          la=2 lb=1:     98 shell pairs
          la=2 lb=2:     27 shell pairs

Calculating one electron integrals          ... done (  0.0 sec)
Calculating RI/J V-Matrix + Cholesky decomp.... done (  0.8 sec)
Calculating Nuclear repulsion               ... done (  0.0 sec) ENN=    336.433904935625 Eh

SHARK setup successfully completed in   2.6 seconds

Maximum memory used throughout the entire GTOINT-calculation: 11.7 MB


           ************************************************************
           *        Program running with 4 parallel MPI-processes     *
           *              working on a common directory               *
           ************************************************************
-------------------------------------------------------------------------------
                                 ORCA SCF
-------------------------------------------------------------------------------

------------
SCF SETTINGS
------------
Hamiltonian:
 Density Functional     Method          .... DFT(GTOs)
 Exchange Functional    Exchange        .... PBE
   PBE kappa parameter   XKappa         ....  1.024500
   PBE mue parameter    XMuePBE         ....  0.123457
 Correlation Functional Correlation     .... PBE
   PBE beta parameter  CBetaPBE         ....  0.030000
 LDA part of GGA corr.  LDAOpt          .... PW91-LDA
 Gradients option       PostSCFGGA      .... off
 Hybrid DFT is turned on
   Fraction HF Exchange ScalHFX         ....  0.420000
   Scaling of DF-GGA-X  ScalDFX         ....  0.580000
   Scaling of DF-GGA-C  ScalDFC         ....  1.000000
   Scaling of DF-LDA-C  ScalLDAC        ....  1.000000
   Perturbative correction              ....  0.000000
   Density functional embedding theory  .... OFF
 RI-approximation to the Coulomb term is turned on
   Number of AuxJ basis functions       .... 519
   RIJ-ON(X) (HFX calculated with O(N)) .... on
   Number of AuxJ basis functions       .... 519
   RIJ-COSX (HFX calculated with COS-X)).... on


General Settings:
 Integral files         IntName         .... pbeh-3c
 Hartree-Fock type      HFTyp           .... RHF
 Total Charge           Charge          ....    0
 Multiplicity           Mult            ....    1
 Number of Electrons    NEL             ....   58
 Basis Dimension        Dim             ....  137
 Nuclear Repulsion      ENuc            ....    336.4339049356 Eh

Convergence Acceleration:
 DIIS                   CNVDIIS         .... on
   Start iteration      DIISMaxIt       ....    12
   Startup error        DIISStart       ....  0.200000
   # of expansion vecs  DIISMaxEq       ....     5
   Bias factor          DIISBfac        ....   1.050
   Max. coefficient     DIISMaxC        ....  10.000
 Trust-Rad. Augm. Hess. CNVTRAH         .... auto
   Auto Start mean grad. ratio tolernc. ....  1.125000
   Auto Start start iteration           ....    20
   Auto Start num. interpolation iter.  ....    10
   Max. Number of Micro iterations      ....    16
   Max. Number of Macro iterations      .... Maxiter - #DIIS iter
   Number of Davidson start vectors     ....     2
   Converg. threshold I  (grad. norm)   ....   1.000e-05
   Converg. threshold II (energy diff.) ....   1.000e-08
   Grad. Scal. Fac. for Micro threshold ....   0.100
   Minimum threshold for Micro iter.    ....   0.010
   NR start threshold (gradient norm)   ....   0.001
   Initial trust radius                 ....   0.400
   Minimum AH scaling param. (alpha)    ....   1.000
   Maximum AH scaling param. (alpha)    .... 1000.000
   Orbital update algorithm             .... Taylor
   White noise on init. David. guess    .... on
   Maximum white noise                  ....   0.010
   Quad. conv. algorithm                .... NR
   COSX micro iterations for RIJONX calc.... off
 SOSCF                  CNVSOSCF        .... on
   Start iteration      SOSCFMaxIt      ....   150
   Startup grad/error   SOSCFStart      ....  0.003300
 Level Shifting         CNVShift        .... on
   Level shift para.    LevelShift      ....    0.2500
   Turn off err/grad.   ShiftErr        ....    0.0010
 Zerner damping         CNVZerner       .... off
 Static damping         CNVDamp         .... on
   Fraction old density DampFac         ....    0.7000
   Max. Damping (<1)    DampMax         ....    0.9800
   Min. Damping (>=0)   DampMin         ....    0.0000
   Turn off err/grad.   DampErr         ....    0.1000
 Fernandez-Rico         CNVRico         .... off

SCF Procedure:
 Maximum # iterations   MaxIter         ....   125
 SCF integral mode      SCFMode         .... Direct
   Integral package                     .... SHARK and LIBINT hybrid scheme
 Reset frequency        DirectResetFreq ....    20
 Integral Threshold     Thresh          ....  2.500e-11 Eh
 Primitive CutOff       TCut            ....  2.500e-12 Eh

Convergence Tolerance:
 Convergence Check Mode ConvCheckMode   .... Total+1el-Energy
 Convergence forced     ConvForced      .... 0
 Energy Change          TolE            ....  1.000e-08 Eh
 1-El. energy change                    ....  1.000e-05 Eh
 Orbital Gradient       TolG            ....  1.000e-05
 Orbital Rotation angle TolX            ....  1.000e-05
 DIIS Error             TolErr          ....  5.000e-07


Diagonalization of the overlap matrix:
Smallest eigenvalue                        ... 4.533e-03
Time for diagonalization                   ...    0.004 sec
Threshold for overlap eigenvalues          ... 1.000e-08
Number of eigenvalues below threshold      ... 0
Time for construction of square roots      ...    0.181 sec
Total time needed                          ...    0.185 sec

--------------------------------
INITIAL GUESS: MINIMAL BASIS EHT
--------------------------------
The minimal basis has 51 functions
EHT matrix was diagonalized
Basis set overlap was calculated now projecting the orbitals
Using GuessMode=FMatrix for the initial guess
C*T matrix was formed
Effective Fockian was calculated
Effective Fockian was diagonalized
Initial density was built
                      ------------------
                      INITIAL GUESS DONE
                      ------------------
-------------------
DFT GRID GENERATION
-------------------

General Integration Accuracy     IntAcc      ... 4.959
Radial Grid Type                 RadialGrid  ... OptM3 with GC (2021)
Angular Grid (max. ang.)         AngularGrid ... 6 (Lebedev-590)
Angular grid pruning method      GridPruning ... 4 (adaptive)
Weight generation scheme         WeightScheme... Becke
Basis function cutoff            BFCut       ... 1.0000e-11
Integration weight cutoff        WCut        ... 1.0000e-14
Angular grids for H and He will be reduced by one unit
Partially contracted basis set               ... off
Rotationally invariant grid construction     ... off

Total number of grid points                  ...   236531
Total number of batches                      ...     3708
Average number of points per batch           ...       63
Average number of grid points per atom       ...    10284
Time for grid setup =    6.194 sec

--------------------
COSX GRID GENERATION
--------------------

GRIDX 1
-------
General Integration Accuracy     IntAcc      ... 4.020
Radial Grid Type                 RadialGrid  ... OptM3 with GC (2021)
Angular Grid (max. ang.)         AngularGrid ... 2 (Lebedev-110)
Angular grid pruning method      GridPruning ... 4 (adaptive)
Weight generation scheme         WeightScheme... Becke
Basis function cutoff            BFCut       ... 1.0000e-11
Integration weight cutoff        WCut        ... 1.0000e-14
Angular grids for H and He will be reduced by one unit
Partially contracted basis set               ... on
Rotationally invariant grid construction     ... off

Total number of grid points                  ...    24283
Total number of batches                      ...      392
Average number of points per batch           ...       61
Average number of grid points per atom       ...     1056
UseSFitting                                  ... on

GRIDX 2
-------
General Integration Accuracy     IntAcc      ... 4.338
Radial Grid Type                 RadialGrid  ... OptM3 with GC (2021)
Angular Grid (max. ang.)         AngularGrid ... 3 (Lebedev-194)
Angular grid pruning method      GridPruning ... 4 (adaptive)
Weight generation scheme         WeightScheme... Becke
Basis function cutoff            BFCut       ... 1.0000e-11
Integration weight cutoff        WCut        ... 1.0000e-14
Angular grids for H and He will be reduced by one unit
Partially contracted basis set               ... on
Rotationally invariant grid construction     ... off

Total number of grid points                  ...    52758
Total number of batches                      ...      838
Average number of points per batch           ...       62
Average number of grid points per atom       ...     2294
UseSFitting                                  ... on

GRIDX 3
-------
General Integration Accuracy     IntAcc      ... 4.871
Radial Grid Type                 RadialGrid  ... OptM3 with GC (2021)
Angular Grid (max. ang.)         AngularGrid ... 4 (Lebedev-302)
Angular grid pruning method      GridPruning ... 4 (adaptive)
Weight generation scheme         WeightScheme... Becke
Basis function cutoff            BFCut       ... 1.0000e-11
Integration weight cutoff        WCut        ... 1.0000e-14
Angular grids for H and He will be reduced by one unit
Partially contracted basis set               ... on
Rotationally invariant grid construction     ... off

Total number of grid points                  ...   105685
Total number of batches                      ...     1665
Average number of points per batch           ...       63
Average number of grid points per atom       ...     4595
UseSFitting                                  ... on

Time for X-Grid setup             =    6.362 sec

--------------
SCF ITERATIONS
--------------
ITER       Energy         Delta-E        Max-DP      RMS-DP      [F,P]     Damp
               ***  Starting incremental Fock matrix formation  ***
  0   -275.2954071010   0.000000000000 0.03052484  0.00207928  0.4040499 0.7000
  1   -275.4455629884  -0.150155887394 0.02196203  0.00158620  0.2861999 0.7000
                      *** Initiating the SOSCF procedure ***
                      *** Re-Reading the Fockian *** 
                      *** Removing any level shift *** 
ITER      Energy       Delta-E        Grad      Rot      Max-DP    RMS-DP
  2   -275.55292576  -0.1073627669  0.002715  0.002715  0.057750  0.003961
               *** Restarting incremental Fock matrix formation ***
  3   -275.80941121  -0.2564854533  0.006207  0.007017  0.013697  0.000788
  4   -275.81012052  -0.0007093153  0.001504  0.001632  0.003492  0.000202
  5   -275.81028120  -0.0001606806  0.001114  0.000370  0.000918  0.000065
  6   -275.81029562  -0.0000144117  0.000098  0.000089  0.000342  0.000013
  7   -275.81029588  -0.0000002638  0.000073  0.000039  0.000148  0.000007
  8   -275.81029618  -0.0000002954  0.000007  0.000005  0.000018  0.000001
  9   -275.81029618  -0.0000000046  0.000004  0.000002  0.000006  0.000000
                 **** Energy Check signals convergence ****
              ***Rediagonalizing the Fockian in SOSCF/NRSCF***

               *****************************************************
               *                     SUCCESS                       *
               *           SCF CONVERGED AFTER  10 CYCLES          *
               *****************************************************

Old exchange energy                            =    -17.646964553 Eh
New exchange energy                            =    -17.646969718 Eh
Exchange energy change after final integration =     -0.000005165 Eh
Total energy after final integration           =   -275.810301348 Eh
Final COS-X integration done in                =     7.324 sec

----------------
TOTAL SCF ENERGY
----------------

Total Energy       :         -275.81030135 Eh           -7505.17986 eV

Components:
Nuclear Repulsion  :          336.43390494 Eh            9154.83198 eV
Electronic Energy  :         -612.24420628 Eh          -16660.01183 eV
One Electron Energy:        -1036.81833285 Eh          -28213.26117 eV
Two Electron Energy:          424.57412657 Eh           11553.24934 eV
Max COSX asymmetry :            0.00000118 Eh               0.00003 eV

Virial components:
Potential Energy   :         -549.28660165 Eh          -14946.84831 eV
Kinetic Energy     :          273.47630031 Eh            7441.66846 eV
Virial Ratio       :            2.00853456


DFT components:
N(Alpha)           :       29.000008295001 electrons
N(Beta)            :       29.000008295001 electrons
N(Total)           :       58.000016590002 electrons
E(X)               :      -23.365609475050 Eh       
E(C)               :       -2.449648237150 Eh       
E(XC)              :      -25.815257712200 Eh       
DFET-embed. en.    :        0.000000000000 Eh       

---------------
SCF CONVERGENCE
---------------

  Last Energy change         ...   -2.9781e-09  Tolerance :   1.0000e-08
  Last MAX-Density change    ...    9.9920e-16  Tolerance :   1.0000e-07
  Last RMS-Density change    ...    3.1178e-17  Tolerance :   5.0000e-09
  Last Orbital Gradient      ...    3.8227e-07  Tolerance :   1.0000e-05
  Last Orbital Rotation      ...    3.3723e-07  Tolerance :   1.0000e-05

             **** THE GBW FILE WAS UPDATED (pbeh-3c.gbw) ****
             **** DENSITY pbeh-3c.scfp WAS UPDATED ****
             **** ENERGY FILE WAS UPDATED (pbeh-3c.en.tmp) ****
             **** THE GBW FILE WAS UPDATED (pbeh-3c.gbw) ****
             **** DENSITY pbeh-3c.scfp WAS UPDATED ****
----------------
ORBITAL ENERGIES
----------------

  NO   OCC          E(Eh)            E(eV) 
   0   2.0000     -10.434772      -283.9446 
   1   2.0000     -10.433201      -283.9018 
   2   2.0000     -10.425584      -283.6946 
   3   2.0000     -10.418864      -283.5117 
   4   2.0000     -10.417234      -283.4673 
   5   2.0000     -10.416747      -283.4541 
   6   2.0000     -10.416544      -283.4486 
   7   2.0000      -0.916394       -24.9363 
   8   2.0000      -0.850716       -23.1492 
   9   2.0000      -0.794940       -21.6314 
  10   2.0000      -0.760332       -20.6897 
  11   2.0000      -0.723855       -19.6971 
  12   2.0000      -0.659880       -17.9562 
  13   2.0000      -0.601129       -16.3576 
  14   2.0000      -0.534024       -14.5315 
  15   2.0000      -0.517093       -14.0708 
  16   2.0000      -0.496648       -13.5145 
  17   2.0000      -0.480601       -13.0778 
  18   2.0000      -0.453178       -12.3316 
  19   2.0000      -0.450539       -12.2598 
  20   2.0000      -0.430132       -11.7045 
  21   2.0000      -0.426338       -11.6012 
  22   2.0000      -0.420635       -11.4461 
  23   2.0000      -0.406258       -11.0548 
  24   2.0000      -0.391124       -10.6430 
  25   2.0000      -0.376537       -10.2461 
  26   2.0000      -0.357004        -9.7146 
  27   2.0000      -0.352049        -9.5797 
  28   2.0000      -0.346282        -9.4228 
  29   0.0000       0.125842         3.4243 
  30   0.0000       0.163550         4.4504 
  31   0.0000       0.167045         4.5455 
  32   0.0000       0.173374         4.7177 
  33   0.0000       0.184870         5.0306 
  34   0.0000       0.187108         5.0915 
  35   0.0000       0.195493         5.3196 
  36   0.0000       0.203031         5.5248 
  37   0.0000       0.214968         5.8496 
  38   0.0000       0.219224         5.9654 
  39   0.0000       0.222172         6.0456 
  40   0.0000       0.232800         6.3348 
  41   0.0000       0.238139         6.4801 
  42   0.0000       0.255113         6.9420 
  43   0.0000       0.265764         7.2318 
  44   0.0000       0.279929         7.6173 
  45   0.0000       0.290285         7.8991 
  46   0.0000       0.291437         7.9304 
  47   0.0000       0.297678         8.1002 
  48   0.0000       0.305262         8.3066 
  49   0.0000       0.318172         8.6579 
  50   0.0000       0.327358         8.9079 
  51   0.0000       0.478900        13.0315 
  52   0.0000       0.500815        13.6279 
  53   0.0000       0.513697        13.9784 
  54   0.0000       0.525795        14.3076 
  55   0.0000       0.535442        14.5701 
  56   0.0000       0.541891        14.7456 
  57   0.0000       0.578826        15.7507 
  58   0.0000       0.601100        16.3568 
  59   0.0000       0.613079        16.6827 
  60   0.0000       0.637679        17.3521 
  61   0.0000       0.667615        18.1667 
  62   0.0000       0.679945        18.5022 
  63   0.0000       0.708268        19.2729 
  64   0.0000       0.715052        19.4575 
  65   0.0000       0.731486        19.9048 
  66   0.0000       0.767273        20.8786 
  67   0.0000       0.810785        22.0626 
  68   0.0000       0.842913        22.9368 
  69   0.0000       0.847606        23.0645 
  70   0.0000       0.903818        24.5941 
  71   0.0000       0.948503        25.8101 
  72   0.0000       0.974218        26.5098 
  73   0.0000       1.003353        27.3026 
  74   0.0000       1.012704        27.5571 
  75   0.0000       1.028975        27.9998 
  76   0.0000       1.031965        28.0812 
  77   0.0000       1.034306        28.1449 
  78   0.0000       1.042940        28.3798 
  79   0.0000       1.047930        28.5156 
  80   0.0000       1.053537        28.6682 
  81   0.0000       1.070528        29.1305 
  82   0.0000       1.094177        29.7741 
  83   0.0000       1.103563        30.0295 
  84   0.0000       1.116649        30.3856 
  85   0.0000       1.122375        30.5414 
  86   0.0000       1.130875        30.7727 
  87   0.0000       1.150041        31.2942 
  88   0.0000       1.168972        31.8093 
  89   0.0000       1.317756        35.8580 
  90   0.0000       1.326883        36.1063 
  91   0.0000       1.446077        39.3498 
  92   0.0000       1.451351        39.4933 
  93   0.0000       1.467833        39.9418 
  94   0.0000       1.555965        42.3400 
  95   0.0000       1.570770        42.7428 
  96   0.0000       1.631547        44.3966 
  97   0.0000       1.643142        44.7122 
  98   0.0000       1.748394        47.5762 
  99   0.0000       1.785853        48.5955 
 100   0.0000       1.803495        49.0756 
 101   0.0000       1.836948        49.9859 
 102   0.0000       1.875348        51.0308 
 103   0.0000       1.966587        53.5136 
 104   0.0000       1.978142        53.8280 
 105   0.0000       2.023475        55.0616 
 106   0.0000       2.040491        55.5246 
 107   0.0000       2.042953        55.5916 
 108   0.0000       2.082754        56.6746 
 109   0.0000       2.084655        56.7263 
 110   0.0000       2.136546        58.1384 
 111   0.0000       2.170708        59.0680 
 112   0.0000       2.173691        59.1491 
 113   0.0000       2.208270        60.0901 
 114   0.0000       2.283891        62.1478 
 115   0.0000       2.339860        63.6708 
 116   0.0000       2.349393        63.9302 
 117   0.0000       2.381425        64.8019 
 118   0.0000       2.397050        65.2271 
 119   0.0000       2.433008        66.2055 
 120   0.0000       2.442382        66.4606 
 121   0.0000       2.477989        67.4295 
 122   0.0000       2.512355        68.3647 
 123   0.0000       2.559985        69.6607 
 124   0.0000       2.642337        71.9016 
 125   0.0000       2.677760        72.8656 
 126   0.0000       2.688062        73.1459 
 127   0.0000       2.781437        75.6867 
 128   0.0000       2.856618        77.7325 
 129   0.0000       2.867387        78.0256 
 130   0.0000      13.511648       367.6706 
 131   0.0000      13.737717       373.8223 
 132   0.0000      13.815066       375.9271 
 133   0.0000      13.893190       378.0529 
 134   0.0000      14.016997       381.4219 
 135   0.0000      14.080236       383.1427 
 136   0.0000      14.135280       384.6405 

                    ********************************
                    * MULLIKEN POPULATION ANALYSIS *
                    ********************************

-----------------------
MULLIKEN ATOMIC CHARGES
-----------------------
   0 C :   -0.644730
   1 C :   -0.405937
   2 C :   -0.198486
   3 C :   -0.222134
   4 C :   -0.643783
   5 C :   -0.633091
   6 C :   -0.656310
   7 H :    0.208342
   8 H :    0.220566
   9 H :    0.212776
  10 H :    0.209076
  11 H :    0.203790
  12 H :    0.200298
  13 H :    0.207323
  14 H :    0.210039
  15 H :    0.218316
  16 H :    0.220514
  17 H :    0.206500
  18 H :    0.214048
  19 H :    0.217681
  20 H :    0.209266
  21 H :    0.223902
  22 H :    0.222034
Sum of atomic charges:   -0.0000000

--------------------------------
MULLIKEN REDUCED ORBITAL CHARGES
--------------------------------
  0 C s       :     3.375239  s :     3.375239
      pz      :     1.117994  p :     3.232289
      px      :     0.991865
      py      :     1.122431
      dz2     :     0.009868  d :     0.037202
      dxz     :     0.008235
      dyz     :     0.002934
      dx2y2   :     0.010120
      dxy     :     0.006045
  1 C s       :     3.317971  s :     3.317971
      pz      :     1.106939  p :     3.044162
      px      :     0.986187
      py      :     0.951036
      dz2     :     0.009516  d :     0.043804
      dxz     :     0.008427
      dyz     :     0.007016
      dx2y2   :     0.009513
      dxy     :     0.009332
  2 C s       :     3.273668  s :     3.273668
      pz      :     0.946070  p :     2.875516
      px      :     0.995271
      py      :     0.934175
      dz2     :     0.010121  d :     0.049302
      dxz     :     0.011435
      dyz     :     0.008684
      dx2y2   :     0.010533
      dxy     :     0.008529
  3 C s       :     3.274743  s :     3.274743
      pz      :     1.046288  p :     2.897686
      px      :     0.912526
      py      :     0.938871
      dz2     :     0.011350  d :     0.049705
      dxz     :     0.008136
      dyz     :     0.008776
      dx2y2   :     0.013125
      dxy     :     0.008319
  4 C s       :     3.375852  s :     3.375852
      pz      :     1.091046  p :     3.230928
      px      :     1.023483
      py      :     1.116399
      dz2     :     0.008685  d :     0.037003
      dxz     :     0.008144
      dyz     :     0.004802
      dx2y2   :     0.011644
      dxy     :     0.003727
  5 C s       :     3.374204  s :     3.374204
      pz      :     1.119437  p :     3.221764
      px      :     1.134033
      py      :     0.968294
      dz2     :     0.005386  d :     0.037123
      dxz     :     0.008184
      dyz     :     0.008678
      dx2y2   :     0.008567
      dxy     :     0.006307
  6 C s       :     3.378410  s :     3.378410
      pz      :     0.989195  p :     3.241022
      px      :     1.131552
      py      :     1.120275
      dz2     :     0.007818  d :     0.036879
      dxz     :     0.009813
      dyz     :     0.005467
      dx2y2   :     0.010244
      dxy     :     0.003537
  7 H s       :     0.791658  s :     0.791658
  8 H s       :     0.779434  s :     0.779434
  9 H s       :     0.787224  s :     0.787224
 10 H s       :     0.790924  s :     0.790924
 11 H s       :     0.796210  s :     0.796210
 12 H s       :     0.799702  s :     0.799702
 13 H s       :     0.792677  s :     0.792677
 14 H s       :     0.789961  s :     0.789961
 15 H s       :     0.781684  s :     0.781684
 16 H s       :     0.779486  s :     0.779486
 17 H s       :     0.793500  s :     0.793500
 18 H s       :     0.785952  s :     0.785952
 19 H s       :     0.782319  s :     0.782319
 20 H s       :     0.790734  s :     0.790734
 21 H s       :     0.776098  s :     0.776098
 22 H s       :     0.777966  s :     0.777966


                     *******************************
                     * LOEWDIN POPULATION ANALYSIS *
                     *******************************

----------------------
LOEWDIN ATOMIC CHARGES
----------------------
   0 C :   -0.361323
   1 C :   -0.238828
   2 C :   -0.152155
   3 C :   -0.156566
   4 C :   -0.355884
   5 C :   -0.353205
   6 C :   -0.356295
   7 H :    0.122935
   8 H :    0.126877
   9 H :    0.123206
  10 H :    0.120438
  11 H :    0.119136
  12 H :    0.117529
  13 H :    0.118737
  14 H :    0.123926
  15 H :    0.126800
  16 H :    0.124989
  17 H :    0.122174
  18 H :    0.124305
  19 H :    0.126186
  20 H :    0.123852
  21 H :    0.127286
  22 H :    0.125881

-------------------------------
LOEWDIN REDUCED ORBITAL CHARGES
-------------------------------
  0 C s       :     2.948929  s :     2.948929
      pz      :     1.130571  p :     3.342800
      px      :     1.088347
      py      :     1.123882
      dz2     :     0.017417  d :     0.069595
      dxz     :     0.015760
      dyz     :     0.004627
      dx2y2   :     0.019373
      dxy     :     0.012417
  1 C s       :     2.908626  s :     2.908626
      pz      :     1.103318  p :     3.240865
      px      :     1.074543
      py      :     1.063005
      dz2     :     0.018066  d :     0.089337
      dxz     :     0.015648
      dyz     :     0.013386
      dx2y2   :     0.022384
      dxy     :     0.019854
  2 C s       :     2.874534  s :     2.874534
      pz      :     1.058595  p :     3.170046
      px      :     1.059980
      py      :     1.051471
      dz2     :     0.023728  d :     0.107575
      dxz     :     0.023603
      dyz     :     0.018644
      dx2y2   :     0.023909
      dxy     :     0.017691
  3 C s       :     2.872875  s :     2.872875
      pz      :     1.071818  p :     3.175134
      px      :     1.050172
      py      :     1.053144
      dz2     :     0.022104  d :     0.108557
      dxz     :     0.019068
      dyz     :     0.017385
      dx2y2   :     0.031208
      dxy     :     0.018792
  4 C s       :     2.948763  s :     2.948763
      pz      :     1.122955  p :     3.337714
      px      :     1.092138
      py      :     1.122621
      dz2     :     0.015603  d :     0.069407
      dxz     :     0.015954
      dyz     :     0.008373
      dx2y2   :     0.021585
      dxy     :     0.007893
  5 C s       :     2.950481  s :     2.950481
      pz      :     1.128172  p :     3.333158
      px      :     1.127889
      py      :     1.077097
      dz2     :     0.009707  d :     0.069566
      dxz     :     0.013296
      dyz     :     0.016574
      dx2y2   :     0.017488
      dxy     :     0.012501
  6 C s       :     2.946205  s :     2.946205
      pz      :     1.086387  p :     3.340771
      px      :     1.130441
      py      :     1.123943
      dz2     :     0.016700  d :     0.069319
      dxz     :     0.018462
      dyz     :     0.011569
      dx2y2   :     0.017053
      dxy     :     0.005536
  7 H s       :     0.877065  s :     0.877065
  8 H s       :     0.873123  s :     0.873123
  9 H s       :     0.876794  s :     0.876794
 10 H s       :     0.879562  s :     0.879562
 11 H s       :     0.880864  s :     0.880864
 12 H s       :     0.882471  s :     0.882471
 13 H s       :     0.881263  s :     0.881263
 14 H s       :     0.876074  s :     0.876074
 15 H s       :     0.873200  s :     0.873200
 16 H s       :     0.875011  s :     0.875011
 17 H s       :     0.877826  s :     0.877826
 18 H s       :     0.875695  s :     0.875695
 19 H s       :     0.873814  s :     0.873814
 20 H s       :     0.876148  s :     0.876148
 21 H s       :     0.872714  s :     0.872714
 22 H s       :     0.874119  s :     0.874119


                      *****************************
                      * MAYER POPULATION ANALYSIS *
                      *****************************

  NA   - Mulliken gross atomic population
  ZA   - Total nuclear charge
  QA   - Mulliken gross atomic charge
  VA   - Mayer's total valence
  BVA  - Mayer's bonded valence
  FA   - Mayer's free valence

  ATOM       NA         ZA         QA         VA         BVA        FA
  0 C      6.6447     6.0000    -0.6447     3.7458     3.7458     0.0000
  1 C      6.4059     6.0000    -0.4059     3.7338     3.7338    -0.0000
  2 C      6.1985     6.0000    -0.1985     3.7114     3.7114    -0.0000
  3 C      6.2221     6.0000    -0.2221     3.7600     3.7600    -0.0000
  4 C      6.6438     6.0000    -0.6438     3.7114     3.7114    -0.0000
  5 C      6.6331     6.0000    -0.6331     3.7223     3.7223    -0.0000
  6 C      6.6563     6.0000    -0.6563     3.7118     3.7118    -0.0000
  7 H      0.7917     1.0000     0.2083     0.9154     0.9154     0.0000
  8 H      0.7794     1.0000     0.2206     0.9125     0.9125     0.0000
  9 H      0.7872     1.0000     0.2128     0.9142     0.9142    -0.0000
 10 H      0.7909     1.0000     0.2091     0.9114     0.9114    -0.0000
 11 H      0.7962     1.0000     0.2038     0.9124     0.9124    -0.0000
 12 H      0.7997     1.0000     0.2003     0.9076     0.9076     0.0000
 13 H      0.7927     1.0000     0.2073     0.9031     0.9031    -0.0000
 14 H      0.7900     1.0000     0.2100     0.9162     0.9162    -0.0000
 15 H      0.7817     1.0000     0.2183     0.9141     0.9141     0.0000
 16 H      0.7795     1.0000     0.2205     0.9153     0.9153    -0.0000
 17 H      0.7935     1.0000     0.2065     0.9185     0.9185     0.0000
 18 H      0.7860     1.0000     0.2140     0.9172     0.9172     0.0000
 19 H      0.7823     1.0000     0.2177     0.9147     0.9147    -0.0000
 20 H      0.7907     1.0000     0.2093     0.9170     0.9170    -0.0000
 21 H      0.7761     1.0000     0.2239     0.9127     0.9127    -0.0000
 22 H      0.7780     1.0000     0.2220     0.9144     0.9144    -0.0000

  Mayer bond orders larger than 0.100000
B(  0-C ,  1-C ) :   0.9962 B(  0-C ,  7-H ) :   0.9296 B(  0-C ,  8-H ) :   0.9313 
B(  0-C ,  9-H ) :   0.9263 B(  1-C ,  2-C ) :   0.9790 B(  1-C , 10-H ) :   0.9235 
B(  1-C , 11-H ) :   0.9153 B(  2-C ,  3-C ) :   0.9718 B(  2-C ,  6-C ) :   0.9772 
B(  2-C , 12-H ) :   0.9120 B(  3-C ,  4-C ) :   0.9824 B(  3-C ,  5-C ) :   0.9941 
B(  3-C , 13-H ) :   0.9129 B(  4-C , 14-H ) :   0.9247 B(  4-C , 15-H ) :   0.9287 
B(  4-C , 16-H ) :   0.9271 B(  5-C , 17-H ) :   0.9240 B(  5-C , 18-H ) :   0.9312 
B(  5-C , 19-H ) :   0.9295 B(  6-C , 20-H ) :   0.9250 B(  6-C , 21-H ) :   0.9248 
B(  6-C , 22-H ) :   0.9257 

-------
TIMINGS
-------

Total SCF time: 0 days 0 hours 1 min 43 sec 

Total time                  ....     103.100 sec
Sum of individual times     ....      95.299 sec  ( 92.4%)

Fock matrix formation       ....      78.873 sec  ( 76.5%)
  Split-RI-J                ....       8.089 sec  ( 10.3% of F)
  Chain of spheres X        ....      41.720 sec  ( 52.9% of F)
  XC integration            ....      18.571 sec  ( 23.5% of F)
    Basis function eval.    ....       5.010 sec  ( 27.0% of XC)
    Density eval.           ....       2.545 sec  ( 13.7% of XC)
    XC-Functional eval.     ....       1.818 sec  (  9.8% of XC)
    XC-Potential eval.      ....       1.620 sec  (  8.7% of XC)
Diagonalization             ....       0.773 sec  (  0.7%)
Density matrix formation    ....       0.148 sec  (  0.1%)
Population analysis         ....       1.126 sec  (  1.1%)
Initial guess               ....       0.063 sec  (  0.1%)
Orbital Transformation      ....       0.000 sec  (  0.0%)
Orbital Orthonormalization  ....       0.000 sec  (  0.0%)
DIIS solution               ....       0.444 sec  (  0.4%)
SOSCF solution              ....       1.317 sec  (  1.3%)
Grid generation             ....      12.557 sec  ( 12.2%)

Maximum memory used throughout the entire SCF-calculation: 58.6 MB


-------------------------------------------------------------------------------
                          DFT DISPERSION CORRECTION                            
                                                                               
                              DFTD3 V3.1  Rev 1                                
                          USING Becke-Johnson damping                          
-------------------------------------------------------------------------------
The PBEh-3c composite method is recognized
Using three-body term ABC
Active option DFTDOPT                   ...         4   

molecular C6(AA) [au] = 3357.350088 


            DFT-D V3
 parameters
 s6 scaling factor         :     1.0000 
 a1 scaling factor         :     0.4860 
 s8 scaling factor         :     0.0000 
 a2 scaling factor         :     4.5000 
 Damping factor alpha9(ATM):    16.0000 
 ad hoc parameters k1-k3   :    16.0000     1.3333    -4.0000 

 Edisp/kcal,au: -7.437082832732  -0.011851744630 
 E6   /kcal   :  -7.507303783 
 E8   /kcal   :  -0.000000000 
 E6(ABC)      :   0.070220951 
 % E8         :   0.000000000 
 % E6(ABC)    :  -0.944200196 

-------------------------   ----------------
Dispersion correction           -0.011851745
-------------------------   ----------------

------------------   -----------------
gCP correction             0.031183407
------------------   -----------------

-------------------------   --------------------
FINAL SINGLE POINT ENERGY      -275.790969686435
-------------------------   --------------------


                            ***************************************
                            *     ORCA property calculations      *
                            ***************************************

                                    ---------------------
                                    Active property flags
                                    ---------------------
   (+) Dipole Moment


------------------------------------------------------------------------------
                       ORCA ELECTRIC PROPERTIES CALCULATION
------------------------------------------------------------------------------

Dipole Moment Calculation                       ... on
Quadrupole Moment Calculation                   ... off
Polarizability Calculation                      ... off
GBWName                                         ... pbeh-3c.gbw
Electron density                                ... pbeh-3c.scfp
The origin for moment calculation is the CENTER OF MASS  = ( 0.003097, -0.009077 -0.088512)

-------------
DIPOLE MOMENT
-------------
                                X             Y             Z
Electronic contribution:      0.03154      -0.12831      -1.14760
Nuclear contribution   :     -0.03861       0.11314       1.10327
                        -----------------------------------------
Total Dipole Moment    :     -0.00706      -0.01516      -0.04433
                        -----------------------------------------
Magnitude (a.u.)       :      0.04738
Magnitude (Debye)      :      0.12043



--------------------
Rotational spectrum 
--------------------
 
Rotational constants in cm-1:     0.134566     0.050387     0.046780 
Rotational constants in MHz :  4034.196902  1510.549333  1402.434833 

 Dipole components along the rotational axes: 
x,y,z [a.u.] :     0.006673     0.022842     0.040972 
x,y,z [Debye]:     0.016962     0.058059     0.104142 

 

Timings for individual modules:

Sum of individual times         ...      108.377 sec (=   1.806 min)
GTO integral calculation        ...        3.441 sec (=   0.057 min)   3.2 %
SCF iterations                  ...      104.936 sec (=   1.749 min)  96.8 %
                             ****ORCA TERMINATED NORMALLY****
TOTAL RUN TIME: 0 days 0 hours 1 minutes 50 seconds 706 msec
