
                                 *****************
                                 * O   R   C   A *
                                 *****************

                                            #,                                       
                                            ###                                      
                                            ####                                     
                                            #####                                    
                                            ######                                   
                                           ########,                                 
                                     ,,################,,,,,                         
                               ,,#################################,,                 
                          ,,##########################################,,             
                       ,#########################################, ''#####,          
                    ,#############################################,,   '####,        
                  ,##################################################,,,,####,       
                ,###########''''           ''''###############################       
              ,#####''   ,,,,##########,,,,          '''####'''          '####       
            ,##' ,,,,###########################,,,                        '##       
           ' ,,###''''                  '''############,,,                           
         ,,##''                                '''############,,,,        ,,,,,,###''
      ,#''                                            '''#######################'''  
     '                                                          ''''####''''         
             ,#######,   #######,   ,#######,      ##                                
            ,#'     '#,  ##    ##  ,#'     '#,    #''#        ######   ,####,        
            ##       ##  ##   ,#'  ##            #'  '#       #        #'  '#        
            ##       ##  #######   ##           ,######,      #####,   #    #        
            '#,     ,#'  ##    ##  '#,     ,#' ,#      #,         ##   #,  ,#        
             '#######'   ##     ##  '#######'  #'      '#     #####' # '####'        



                  #######################################################
                  #                        -***-                        #
                  #          Department of theory and spectroscopy      #
                  #    Directorship and core code : Frank Neese         #
                  #        Max Planck Institute fuer Kohlenforschung    #
                  #                Kaiser Wilhelm Platz 1               #
                  #                 D-45470 Muelheim/Ruhr               #
                  #                      Germany                        #
                  #                                                     #
                  #                  All rights reserved                #
                  #                        -***-                        #
                  #######################################################


                         Program Version 5.0.3 -  RELEASE  -


 With contributions from (in alphabetic order):
   Daniel Aravena         : Magnetic Suceptibility
   Michael Atanasov       : Ab Initio Ligand Field Theory (pilot matlab implementation)
   Alexander A. Auer      : GIAO ZORA, VPT2 properties, NMR spectrum
   Ute Becker             : Parallelization
   Giovanni Bistoni       : ED, misc. LED, open-shell LED, HFLD
   Martin Brehm           : Molecular dynamics
   Dmytro Bykov           : SCF Hessian
   Vijay G. Chilkuri      : MRCI spin determinant printing, contributions to CSF-ICE
   Dipayan Datta          : RHF DLPNO-CCSD density
   Achintya Kumar Dutta   : EOM-CC, STEOM-CC
   Dmitry Ganyushin       : Spin-Orbit,Spin-Spin,Magnetic field MRCI
   Miquel Garcia          : C-PCM and meta-GGA Hessian, CC/C-PCM, Gaussian charge scheme
   Yang Guo               : DLPNO-NEVPT2, F12-NEVPT2, CIM, IAO-localization
   Andreas Hansen         : Spin unrestricted coupled pair/coupled cluster methods
   Benjamin Helmich-Paris : MC-RPA, TRAH-SCF, COSX integrals
   Lee Huntington         : MR-EOM, pCC
   Robert Izsak           : Overlap fitted RIJCOSX, COSX-SCS-MP3, EOM
   Marcus Kettner         : VPT2
   Christian Kollmar      : KDIIS, OOCD, Brueckner-CCSD(T), CCSD density, CASPT2, CASPT2-K
   Simone Kossmann        : Meta GGA functionals, TD-DFT gradient, OOMP2, MP2 Hessian
   Martin Krupicka        : Initial AUTO-CI
   Lucas Lang             : DCDCAS
   Marvin Lechner         : AUTO-CI (C++ implementation), FIC-MRCC
   Dagmar Lenk            : GEPOL surface, SMD
   Dimitrios Liakos       : Extrapolation schemes; Compound Job, initial MDCI parallelization
   Dimitrios Manganas     : Further ROCIS development; embedding schemes
   Dimitrios Pantazis     : SARC Basis sets
   Anastasios Papadopoulos: AUTO-CI, single reference methods and gradients
   Taras Petrenko         : DFT Hessian,TD-DFT gradient, ASA, ECA, R-Raman, ABS, FL, XAS/XES, NRVS
   Peter Pinski           : DLPNO-MP2, DLPNO-MP2 Gradient
   Christoph Reimann      : Effective Core Potentials
   Marius Retegan         : Local ZFS, SOC
   Christoph Riplinger    : Optimizer, TS searches, QM/MM, DLPNO-CCSD(T), (RO)-DLPNO pert. Triples
   Tobias Risthaus        : Range-separated hybrids, TD-DFT gradient, RPA, STAB
   Michael Roemelt        : Original ROCIS implementation
   Masaaki Saitow         : Open-shell DLPNO-CCSD energy and density
   Barbara Sandhoefer     : DKH picture change effects
   Avijit Sen             : IP-ROCIS
   Kantharuban Sivalingam : CASSCF convergence, NEVPT2, FIC-MRCI
   Bernardo de Souza      : ESD, SOC TD-DFT
   Georgi Stoychev        : AutoAux, RI-MP2 NMR, DLPNO-MP2 response
   Willem Van den Heuvel  : Paramagnetic NMR
   Boris Wezisla          : Elementary symmetry handling
   Frank Wennmohs         : Technical directorship


 We gratefully acknowledge several colleagues who have allowed us to
 interface, adapt or use parts of their codes:
   Stefan Grimme, W. Hujo, H. Kruse, P. Pracht,  : VdW corrections, initial TS optimization,
                  C. Bannwarth, S. Ehlert          DFT functionals, gCP, sTDA/sTD-DF
   Ed Valeev, F. Pavosevic, A. Kumar             : LibInt (2-el integral package), F12 methods
   Garnet Chan, S. Sharma, J. Yang, R. Olivares  : DMRG
   Ulf Ekstrom                                   : XCFun DFT Library
   Mihaly Kallay                                 : mrcc  (arbitrary order and MRCC methods)
   Jiri Pittner, Ondrej Demel                    : Mk-CCSD
   Frank Weinhold                                : gennbo (NPA and NBO analysis)
   Christopher J. Cramer and Donald G. Truhlar   : smd solvation model
   Lars Goerigk                                  : TD-DFT with DH, B97 family of functionals
   V. Asgeirsson, H. Jonsson                     : NEB implementation
   FAccTs GmbH                                   : IRC, NEB, NEB-TS, DLPNO-Multilevel, CI-OPT
                                                   MM, QMMM, 2- and 3-layer-ONIOM, Crystal-QMMM,
                                                   LR-CPCM, SF, NACMEs, symmetry and pop. for TD-DFT,
                                                   nearIR, NL-DFT gradient (VV10), updates on ESD,
                                                   ML-optimized integration grids
   S Lehtola, MJT Oliveira, MAL Marques          : LibXC Library
   Liviu Ungur et al                             : ANISO software


 Your calculation uses the libint2 library for the computation of 2-el integrals
 For citations please refer to: http://libint.valeyev.net

 Your ORCA version has been built with support for libXC version: 5.1.0
 For citations please refer to: https://tddft.org/programs/libxc/

 This ORCA versions uses:
   CBLAS   interface :  Fast vector & matrix operations
   LAPACKE interface :  Fast linear algebra routines
   SCALAPACK package :  Parallel linear algebra routines
   Shared memory     :  Shared parallel matrices
   BLAS/LAPACK       :  OpenBLAS 0.3.15  USE64BITINT DYNAMIC_ARCH NO_AFFINITY Haswell SINGLE_THREADED
        Core in use  :  Haswell
   Copyright (c) 2011-2014, The OpenBLAS Project




***************************************
The coordinates will be read from file: 3O_B.xyz
***************************************


Your calculation utilizes the geometrical counterpoise correction gCP
Please cite in your paper:
H.Kruse, S. Grimme J.Chem.Phys., 136, (2012), 154101 
   

Your calculation utilizes the atom-pairwise dispersion correction
with the Becke-Johnson damping scheme (D3BJ)
Cite in your paper:
S.Grimme, S.Ehrlich, L.Goerigk, J Comput Chem, (2011), 32, 1456–1465 
S.Grimme, J.Antony, S.Ehrlich and H.Krieg, J.Chem.Phys., 132, (2010), 154104 
   

Your calculation employs the composite approach PBEh-3c.
Please cite in your paper:
S. Grimme, J. G. Brandenburg, C. Bannwarth, A. Hansen J.Chem.Phys., 143, (2015), 054107 
   

================================================================================

----- Orbital basis set information -----
Your calculation utilizes the basis: def2-mSVP

----- AuxJ basis set information -----
Your calculation utilizes the auxiliary basis: def2/J
   F. Weigend, Phys. Chem. Chem. Phys. 8, 1057 (2006).

================================================================================
                                        WARNINGS
                       Please study these warnings very carefully!
================================================================================


INFO   : the flag for use of the SHARK integral package has been found!

================================================================================
                                       INPUT FILE
================================================================================
NAME = pbeh-3c.inp
|  1> ! PBEh-3c def2/J TightSCF DefGrid3
|  2> 
|  3> %maxcore 60000
|  4> 
|  5> %pal
|  6> nprocs 4
|  7> end
|  8> 
|  9> *xyzfile 0 1 3O_B.xyz
| 10> 
| 11>                          ****END OF INPUT****
================================================================================

                       ****************************
                       * Single Point Calculation *
                       ****************************

---------------------------------
CARTESIAN COORDINATES (ANGSTROEM)
---------------------------------
  Si     0.000000    0.000000   -0.690297
  H      1.090130    0.000000    0.345149
  H     -1.090130    0.000000    0.345149

----------------------------
CARTESIAN COORDINATES (A.U.)
----------------------------
  NO LB      ZA    FRAG     MASS         X           Y           Z
   0 Si   14.0000    0    28.086    0.000000    0.000000   -1.304473
   1 H     1.0000    0     1.008    2.060047    0.000000    0.652236
   2 H     1.0000    0     1.008   -2.060047    0.000000    0.652236

--------------------------------
INTERNAL COORDINATES (ANGSTROEM)
--------------------------------
 Si     0   0   0     0.000000000000     0.00000000     0.00000000
 H      1   0   0     1.503506230644     0.00000000     0.00000000
 H      1   2   0     1.503506230644    92.94741005     0.00000000

---------------------------
INTERNAL COORDINATES (A.U.)
---------------------------
 Si     0   0   0     0.000000000000     0.00000000     0.00000000
 H      1   0   0     2.841215016562     0.00000000     0.00000000
 H      1   2   0     2.841215016562    92.94741005     0.00000000

---------------------
BASIS SET INFORMATION
---------------------
There are 2 groups of distinct atoms

 Group   1 Type Si  : 10s7p1d contracted to 4s3p1d pattern {5311/511/1}
 Group   2 Type H   : 4s contracted to 2s pattern {31}

Atom   0Si   basis set group =>   1
Atom   1H    basis set group =>   2
Atom   2H    basis set group =>   2
---------------------------------
AUXILIARY/J BASIS SET INFORMATION
---------------------------------
There are 2 groups of distinct atoms

 Group   1 Type Si  : 14s5p5d2f1g contracted to 8s4p3d1f1g pattern {71111111/2111/311/2/1}
 Group   2 Type H   : 5s2p1d contracted to 3s1p1d pattern {311/2/1}

Atom   0Si   basis set group =>   1
Atom   1H    basis set group =>   2
Atom   2H    basis set group =>   2


           ************************************************************
           *        Program running with 4 parallel MPI-processes     *
           *              working on a common directory               *
           ************************************************************
------------------------------------------------------------------------------
                           ORCA GTO INTEGRAL CALCULATION
                           -- RI-GTO INTEGRALS CHOSEN --
------------------------------------------------------------------------------
------------------------------------------------------------------------------
                   ___                                                        
                  /   \      - P O W E R E D   B Y -                         
                 /     \                                                     
                 |  |  |   _    _      __       _____    __    __             
                 |  |  |  | |  | |    /  \     |  _  \  |  |  /  |          
                  \  \/   | |  | |   /    \    | | | |  |  | /  /          
                 / \  \   | |__| |  /  /\  \   | |_| |  |  |/  /          
                |  |  |   |  __  | /  /__\  \  |    /   |      \           
                |  |  |   | |  | | |   __   |  |    \   |  |\   \          
                \     /   | |  | | |  |  |  |  | |\  \  |  | \   \       
                 \___/    |_|  |_| |__|  |__|  |_| \__\ |__|  \__/        
                                                                              
                      - O R C A' S   B I G   F R I E N D -                    
                                      &                                       
                       - I N T E G R A L  F E E D E R -                       
                                                                              
 v1 FN, 2020, v2 2021                                                         
------------------------------------------------------------------------------


Reading SHARK input file pbeh-3c.SHARKINP.tmp ... ok
----------------------
SHARK INTEGRAL PACKAGE
----------------------

Number of atoms                             ...      3
Number of basis functions                   ...     22
Number of shells                            ...     12
Maximum angular momentum                    ...      2
Integral batch strategy                     ... SHARK/LIBINT Hybrid
RI-J (if used) integral strategy            ... SPLIT-RIJ (Revised 2003 algorithm where possible)
Printlevel                                  ...      1
Contraction scheme used                     ... SEGMENTED contraction
Coulomb Range Separation                    ... NOT USED
Exchange Range Separation                   ... NOT USED
Finite Nucleus Model                        ... NOT USED
Auxiliary Coulomb fitting basis             ... AVAILABLE
   # of basis functions in Aux-J            ...     73
   # of shells in Aux-J                     ...     27
   Maximum angular momentum in Aux-J        ...      4
Auxiliary J/K fitting basis                 ... NOT available
Auxiliary Correlation fitting basis         ... NOT available
Auxiliary 'external' fitting basis          ... NOT available
Integral threshold                          ...     2.500000e-11
Primitive cut-off                           ...     2.500000e-12
Primitive pair pre-selection threshold      ...     2.500000e-12

Calculating pre-screening integrals         ... done (  0.1 sec) Dimension = 12
Organizing shell pair data                  ... done (  0.3 sec)
Shell pair information
Total number of shell pairs                 ...        78
Shell pairs after pre-screening             ...        78
Total number of primitive shell pairs       ...       380
Primitive shell pairs kept                  ...       359
          la=0 lb=0:     36 shell pairs
          la=1 lb=0:     24 shell pairs
          la=1 lb=1:      6 shell pairs
          la=2 lb=0:      8 shell pairs
          la=2 lb=1:      3 shell pairs
          la=2 lb=2:      1 shell pairs

Calculating one electron integrals          ... done (  0.0 sec)
Calculating RI/J V-Matrix + Cholesky decomp.... done (  0.2 sec)
Calculating Nuclear repulsion               ... done (  0.1 sec) ENN=     10.097651698533 Eh

SHARK setup successfully completed in   1.4 seconds

Maximum memory used throughout the entire GTOINT-calculation: 8.7 MB


           ************************************************************
           *        Program running with 4 parallel MPI-processes     *
           *              working on a common directory               *
           ************************************************************
-------------------------------------------------------------------------------
                                 ORCA SCF
-------------------------------------------------------------------------------

------------
SCF SETTINGS
------------
Hamiltonian:
 Density Functional     Method          .... DFT(GTOs)
 Exchange Functional    Exchange        .... PBE
   PBE kappa parameter   XKappa         ....  1.024500
   PBE mue parameter    XMuePBE         ....  0.123457
 Correlation Functional Correlation     .... PBE
   PBE beta parameter  CBetaPBE         ....  0.030000
 LDA part of GGA corr.  LDAOpt          .... PW91-LDA
 Gradients option       PostSCFGGA      .... off
 Hybrid DFT is turned on
   Fraction HF Exchange ScalHFX         ....  0.420000
   Scaling of DF-GGA-X  ScalDFX         ....  0.580000
   Scaling of DF-GGA-C  ScalDFC         ....  1.000000
   Scaling of DF-LDA-C  ScalLDAC        ....  1.000000
   Perturbative correction              ....  0.000000
   Density functional embedding theory  .... OFF
 RI-approximation to the Coulomb term is turned on
   Number of AuxJ basis functions       .... 73
   RIJ-ON(X) (HFX calculated with O(N)) .... on
   Number of AuxJ basis functions       .... 73
   RIJ-COSX (HFX calculated with COS-X)).... on


General Settings:
 Integral files         IntName         .... pbeh-3c
 Hartree-Fock type      HFTyp           .... RHF
 Total Charge           Charge          ....    0
 Multiplicity           Mult            ....    1
 Number of Electrons    NEL             ....   16
 Basis Dimension        Dim             ....   22
 Nuclear Repulsion      ENuc            ....     10.0976516985 Eh

Convergence Acceleration:
 DIIS                   CNVDIIS         .... on
   Start iteration      DIISMaxIt       ....    12
   Startup error        DIISStart       ....  0.200000
   # of expansion vecs  DIISMaxEq       ....     5
   Bias factor          DIISBfac        ....   1.050
   Max. coefficient     DIISMaxC        ....  10.000
 Trust-Rad. Augm. Hess. CNVTRAH         .... auto
   Auto Start mean grad. ratio tolernc. ....  1.125000
   Auto Start start iteration           ....    20
   Auto Start num. interpolation iter.  ....    10
   Max. Number of Micro iterations      ....    16
   Max. Number of Macro iterations      .... Maxiter - #DIIS iter
   Number of Davidson start vectors     ....     2
   Converg. threshold I  (grad. norm)   ....   1.000e-05
   Converg. threshold II (energy diff.) ....   1.000e-08
   Grad. Scal. Fac. for Micro threshold ....   0.100
   Minimum threshold for Micro iter.    ....   0.010
   NR start threshold (gradient norm)   ....   0.001
   Initial trust radius                 ....   0.400
   Minimum AH scaling param. (alpha)    ....   1.000
   Maximum AH scaling param. (alpha)    .... 1000.000
   Orbital update algorithm             .... Taylor
   White noise on init. David. guess    .... on
   Maximum white noise                  ....   0.010
   Quad. conv. algorithm                .... NR
   COSX micro iterations for RIJONX calc.... off
 SOSCF                  CNVSOSCF        .... on
   Start iteration      SOSCFMaxIt      ....   150
   Startup grad/error   SOSCFStart      ....  0.003300
 Level Shifting         CNVShift        .... on
   Level shift para.    LevelShift      ....    0.2500
   Turn off err/grad.   ShiftErr        ....    0.0010
 Zerner damping         CNVZerner       .... off
 Static damping         CNVDamp         .... on
   Fraction old density DampFac         ....    0.7000
   Max. Damping (<1)    DampMax         ....    0.9800
   Min. Damping (>=0)   DampMin         ....    0.0000
   Turn off err/grad.   DampErr         ....    0.1000
 Fernandez-Rico         CNVRico         .... off

SCF Procedure:
 Maximum # iterations   MaxIter         ....   125
 SCF integral mode      SCFMode         .... Direct
   Integral package                     .... SHARK and LIBINT hybrid scheme
 Reset frequency        DirectResetFreq ....    20
 Integral Threshold     Thresh          ....  2.500e-11 Eh
 Primitive CutOff       TCut            ....  2.500e-12 Eh

Convergence Tolerance:
 Convergence Check Mode ConvCheckMode   .... Total+1el-Energy
 Convergence forced     ConvForced      .... 0
 Energy Change          TolE            ....  1.000e-08 Eh
 1-El. energy change                    ....  1.000e-05 Eh
 Orbital Gradient       TolG            ....  1.000e-05
 Orbital Rotation angle TolX            ....  1.000e-05
 DIIS Error             TolErr          ....  5.000e-07


Diagonalization of the overlap matrix:
Smallest eigenvalue                        ... 4.194e-02
Time for diagonalization                   ...    0.000 sec
Threshold for overlap eigenvalues          ... 1.000e-08
Number of eigenvalues below threshold      ... 0
Time for construction of square roots      ...    0.080 sec
Total time needed                          ...    0.080 sec

--------------------------------
INITIAL GUESS: MINIMAL BASIS EHT
--------------------------------
The minimal basis has 11 functions
EHT matrix was diagonalized
Basis set overlap was calculated now projecting the orbitals
Using GuessMode=FMatrix for the initial guess
C*T matrix was formed
Effective Fockian was calculated
Effective Fockian was diagonalized
Initial density was built
                      ------------------
                      INITIAL GUESS DONE
                      ------------------
-------------------
DFT GRID GENERATION
-------------------

General Integration Accuracy     IntAcc      ... 4.959
Radial Grid Type                 RadialGrid  ... OptM3 with GC (2021)
Angular Grid (max. ang.)         AngularGrid ... 6 (Lebedev-590)
Angular grid pruning method      GridPruning ... 4 (adaptive)
Weight generation scheme         WeightScheme... Becke
Basis function cutoff            BFCut       ... 1.0000e-11
Integration weight cutoff        WCut        ... 1.0000e-14
Angular grids for H and He will be reduced by one unit
Partially contracted basis set               ... off
Rotationally invariant grid construction     ... off

Total number of grid points                  ...    34664
Total number of batches                      ...      543
Average number of points per batch           ...       63
Average number of grid points per atom       ...    11555
Time for grid setup =    0.657 sec

--------------------
COSX GRID GENERATION
--------------------

GRIDX 1
-------
General Integration Accuracy     IntAcc      ... 4.020
Radial Grid Type                 RadialGrid  ... OptM3 with GC (2021)
Angular Grid (max. ang.)         AngularGrid ... 2 (Lebedev-110)
Angular grid pruning method      GridPruning ... 4 (adaptive)
Weight generation scheme         WeightScheme... Becke
Basis function cutoff            BFCut       ... 1.0000e-11
Integration weight cutoff        WCut        ... 1.0000e-14
Angular grids for H and He will be reduced by one unit
Partially contracted basis set               ... on
Rotationally invariant grid construction     ... off

Total number of grid points                  ...     3586
Total number of batches                      ...       58
Average number of points per batch           ...       61
Average number of grid points per atom       ...     1195
UseSFitting                                  ... on

GRIDX 2
-------
General Integration Accuracy     IntAcc      ... 4.338
Radial Grid Type                 RadialGrid  ... OptM3 with GC (2021)
Angular Grid (max. ang.)         AngularGrid ... 3 (Lebedev-194)
Angular grid pruning method      GridPruning ... 4 (adaptive)
Weight generation scheme         WeightScheme... Becke
Basis function cutoff            BFCut       ... 1.0000e-11
Integration weight cutoff        WCut        ... 1.0000e-14
Angular grids for H and He will be reduced by one unit
Partially contracted basis set               ... on
Rotationally invariant grid construction     ... off

Total number of grid points                  ...     8582
Total number of batches                      ...      136
Average number of points per batch           ...       63
Average number of grid points per atom       ...     2861
UseSFitting                                  ... on

GRIDX 3
-------
General Integration Accuracy     IntAcc      ... 4.871
Radial Grid Type                 RadialGrid  ... OptM3 with GC (2021)
Angular Grid (max. ang.)         AngularGrid ... 4 (Lebedev-302)
Angular grid pruning method      GridPruning ... 4 (adaptive)
Weight generation scheme         WeightScheme... Becke
Basis function cutoff            BFCut       ... 1.0000e-11
Integration weight cutoff        WCut        ... 1.0000e-14
Angular grids for H and He will be reduced by one unit
Partially contracted basis set               ... on
Rotationally invariant grid construction     ... off

Total number of grid points                  ...    16898
Total number of batches                      ...      266
Average number of points per batch           ...       63
Average number of grid points per atom       ...     5633
UseSFitting                                  ... on

Time for X-Grid setup             =    2.042 sec

--------------
SCF ITERATIONS
--------------
ITER       Energy         Delta-E        Max-DP      RMS-DP      [F,P]     Damp
               ***  Starting incremental Fock matrix formation  ***
  0   -289.9437966106   0.000000000000 0.16959526  0.01729529  0.4159451 0.7000
  1   -290.0311644172  -0.087367806586 0.12412966  0.01199575  0.2866197 0.7000
                               ***Turning on DIIS***
  2   -290.0927817056  -0.061617288378 0.08918110  0.00834913  0.1928927 0.7000
  3   -290.1360497752  -0.043268069546 0.06523055  0.00585735  0.1295461 0.7000
  4   -290.1665028256  -0.030453050476 0.15940001  0.01413176  0.0898358 0.0000
  5   -290.2384870233  -0.071984197689 0.01276637  0.00093691  0.0035296 0.0000
                      *** Initiating the SOSCF procedure ***
                           *** Shutting down DIIS ***
                      *** Re-Reading the Fockian *** 
                      *** Removing any level shift *** 
ITER      Energy       Delta-E        Grad      Rot      Max-DP    RMS-DP
  6   -290.23856084  -0.0000738131  0.001668  0.001668  0.007201  0.000522
               *** Restarting incremental Fock matrix formation ***
  7   -290.23857490  -0.0000140640  0.000613  0.001429  0.003124  0.000276
  8   -290.23857762  -0.0000027192  0.000116  0.000354  0.000957  0.000073
  9   -290.23857776  -0.0000001364  0.000013  0.000026  0.000049  0.000004
 10   -290.23857776  -0.0000000008  0.000003  0.000005  0.000010  0.000001
                 **** Energy Check signals convergence ****
              ***Rediagonalizing the Fockian in SOSCF/NRSCF***

               *****************************************************
               *                     SUCCESS                       *
               *           SCF CONVERGED AFTER  11 CYCLES          *
               *****************************************************

Old exchange energy                            =     -8.815921654 Eh
New exchange energy                            =     -8.815921783 Eh
Exchange energy change after final integration =     -0.000000128 Eh
Total energy after final integration           =   -290.238577886 Eh
Final COS-X integration done in                =     0.239 sec

----------------
TOTAL SCF ENERGY
----------------

Total Energy       :         -290.23857789 Eh           -7897.79322 eV

Components:
Nuclear Repulsion  :           10.09765170 Eh             274.77107 eV
Electronic Energy  :         -300.33622958 Eh           -8172.56429 eV
One Electron Energy:         -421.98307508 Eh          -11482.74324 eV
Two Electron Energy:          121.64684550 Eh            3310.17895 eV
Max COSX asymmetry :            0.00000028 Eh               0.00001 eV

Virial components:
Potential Energy   :         -580.06825589 Eh          -15784.45971 eV
Kinetic Energy     :          289.82967801 Eh            7886.66649 eV
Virial Ratio       :            2.00141083


DFT components:
N(Alpha)           :        8.000000014020 electrons
N(Beta)            :        8.000000014020 electrons
N(Total)           :       16.000000028040 electrons
E(X)               :      -11.740723628603 Eh       
E(C)               :       -0.753489134573 Eh       
E(XC)              :      -12.494212763176 Eh       
DFET-embed. en.    :        0.000000000000 Eh       

---------------
SCF CONVERGENCE
---------------

  Last Energy change         ...   -2.9110e-10  Tolerance :   1.0000e-08
  Last MAX-Density change    ...    1.7764e-15  Tolerance :   1.0000e-07
  Last RMS-Density change    ...    1.1420e-16  Tolerance :   5.0000e-09
  Last Orbital Gradient      ...    1.8489e-07  Tolerance :   1.0000e-05
  Last Orbital Rotation      ...    2.4582e-07  Tolerance :   1.0000e-05

             **** THE GBW FILE WAS UPDATED (pbeh-3c.gbw) ****
             **** DENSITY pbeh-3c.scfp WAS UPDATED ****
             **** ENERGY FILE WAS UPDATED (pbeh-3c.en.tmp) ****
             **** THE GBW FILE WAS UPDATED (pbeh-3c.gbw) ****
             **** DENSITY pbeh-3c.scfp WAS UPDATED ****
----------------
ORBITAL ENERGIES
----------------

  NO   OCC          E(Eh)            E(eV) 
   0   2.0000     -66.753416     -1816.4528 
   1   2.0000      -5.531938      -150.5317 
   2   2.0000      -3.826565      -104.1261 
   3   2.0000      -3.818816      -103.9153 
   4   2.0000      -3.817041      -103.8670 
   5   2.0000      -0.569973       -15.5097 
   6   2.0000      -0.380460       -10.3528 
   7   2.0000      -0.276052        -7.5118 
   8   0.0000      -0.091749        -2.4966 
   9   0.0000       0.073819         2.0087 
  10   0.0000       0.153202         4.1688 
  11   0.0000       0.184992         5.0339 
  12   0.0000       0.417301        11.3553 
  13   0.0000       0.430813        11.7230 
  14   0.0000       0.449826        12.2404 
  15   0.0000       0.486427        13.2363 
  16   0.0000       0.490078        13.3357 
  17   0.0000       0.493575        13.4309 
  18   0.0000       0.638453        17.3732 
  19   0.0000       0.652639        17.7592 
  20   0.0000       1.096884        29.8477 
  21   0.0000       1.192010        32.4362 

                    ********************************
                    * MULLIKEN POPULATION ANALYSIS *
                    ********************************

-----------------------
MULLIKEN ATOMIC CHARGES
-----------------------
   0 Si:    0.092895
   1 H :   -0.046448
   2 H :   -0.046448
Sum of atomic charges:   -0.0000000

--------------------------------
MULLIKEN REDUCED ORBITAL CHARGES
--------------------------------
  0 Sis       :     5.787840  s :     5.787840
      pz      :     3.223229  p :     8.015678
      px      :     2.792449
      py      :     1.999999
      dz2     :     0.007961  d :     0.103588
      dxz     :     0.080056
      dyz     :     0.000001
      dx2y2   :     0.015569
      dxy     :     0.000000
  1 H s       :     1.046448  s :     1.046448
  2 H s       :     1.046448  s :     1.046448


                     *******************************
                     * LOEWDIN POPULATION ANALYSIS *
                     *******************************

----------------------
LOEWDIN ATOMIC CHARGES
----------------------
   0 Si:    0.086060
   1 H :   -0.043030
   2 H :   -0.043030

-------------------------------
LOEWDIN REDUCED ORBITAL CHARGES
-------------------------------
  0 Sis       :     5.655277  s :     5.655277
      pz      :     3.292022  p :     8.135313
      px      :     2.843292
      py      :     1.999999
      dz2     :     0.008612  d :     0.123350
      dxz     :     0.095909
      dyz     :     0.000001
      dx2y2   :     0.018828
      dxy     :     0.000000
  1 H s       :     1.043030  s :     1.043030
  2 H s       :     1.043030  s :     1.043030


                      *****************************
                      * MAYER POPULATION ANALYSIS *
                      *****************************

  NA   - Mulliken gross atomic population
  ZA   - Total nuclear charge
  QA   - Mulliken gross atomic charge
  VA   - Mayer's total valence
  BVA  - Mayer's bonded valence
  FA   - Mayer's free valence

  ATOM       NA         ZA         QA         VA         BVA        FA
  0 Si    13.9071    14.0000     0.0929     1.9422     1.9422    -0.0000
  1 H      1.0464     1.0000    -0.0464     0.9704     0.9704    -0.0000
  2 H      1.0464     1.0000    -0.0464     0.9704     0.9704    -0.0000

  Mayer bond orders larger than 0.100000
B(  0-Si,  1-H ) :   0.9711 B(  0-Si,  2-H ) :   0.9711 

-------
TIMINGS
-------

Total SCF time: 0 days 0 hours 0 min 30 sec 

Total time                  ....      30.818 sec
Sum of individual times     ....      27.007 sec  ( 87.6%)

Fock matrix formation       ....      20.737 sec  ( 67.3%)
  Split-RI-J                ....       3.463 sec  ( 16.7% of F)
  Chain of spheres X        ....       3.053 sec  ( 14.7% of F)
  XC integration            ....       4.233 sec  ( 20.4% of F)
    Basis function eval.    ....       0.151 sec  (  3.6% of XC)
    Density eval.           ....       0.131 sec  (  3.1% of XC)
    XC-Functional eval.     ....       0.261 sec  (  6.2% of XC)
    XC-Potential eval.      ....       0.021 sec  (  0.5% of XC)
Diagonalization             ....       0.824 sec  (  2.7%)
Density matrix formation    ....       0.155 sec  (  0.5%)
Population analysis         ....       0.450 sec  (  1.5%)
Initial guess               ....       0.001 sec  (  0.0%)
Orbital Transformation      ....       0.000 sec  (  0.0%)
Orbital Orthonormalization  ....       0.000 sec  (  0.0%)
DIIS solution               ....       1.598 sec  (  5.2%)
SOSCF solution              ....       0.543 sec  (  1.8%)
Grid generation             ....       2.699 sec  (  8.8%)

Maximum memory used throughout the entire SCF-calculation: 43.6 MB


-------------------------------------------------------------------------------
                          DFT DISPERSION CORRECTION                            
                                                                               
                              DFTD3 V3.1  Rev 1                                
                          USING Becke-Johnson damping                          
-------------------------------------------------------------------------------
The PBEh-3c composite method is recognized
Using three-body term ABC
Active option DFTDOPT                   ...         4   

molecular C6(AA) [au] = 350.578349 


            DFT-D V3
 parameters
 s6 scaling factor         :     1.0000 
 a1 scaling factor         :     0.4860 
 s8 scaling factor         :     0.0000 
 a2 scaling factor         :     4.5000 
 Damping factor alpha9(ATM):    16.0000 
 ad hoc parameters k1-k3   :    16.0000     1.3333    -4.0000 

 Edisp/kcal,au: -0.279255540250  -0.000445021983 
 E6   /kcal   :  -0.279256674 
 E8   /kcal   :  -0.000000000 
 E6(ABC)      :   0.000001134 
 % E8         :   0.000000000 
 % E6(ABC)    :  -0.000405931 

-------------------------   ----------------
Dispersion correction           -0.000445022
-------------------------   ----------------

------------------   -----------------
gCP correction             0.002142095
------------------   -----------------

-------------------------   --------------------
FINAL SINGLE POINT ENERGY      -290.236880812216
-------------------------   --------------------


                            ***************************************
                            *     ORCA property calculations      *
                            ***************************************

                                    ---------------------
                                    Active property flags
                                    ---------------------
   (+) Dipole Moment


------------------------------------------------------------------------------
                       ORCA ELECTRIC PROPERTIES CALCULATION
------------------------------------------------------------------------------

Dipole Moment Calculation                       ... on
Quadrupole Moment Calculation                   ... off
Polarizability Calculation                      ... off
GBWName                                         ... pbeh-3c.gbw
Electron density                                ... pbeh-3c.scfp
The origin for moment calculation is the CENTER OF MASS  = ( 0.000000,  0.000000 -1.173427)

-------------
DIPOLE MOMENT
-------------
                                X             Y             Z
Electronic contribution:      0.00000       0.00000      -1.57442
Nuclear contribution   :      0.00000       0.00000       1.81669
                        -----------------------------------------
Total Dipole Moment    :      0.00000       0.00000       0.24227
                        -----------------------------------------
Magnitude (a.u.)       :      0.24227
Magnitude (Debye)      :      0.61580



--------------------
Rotational spectrum 
--------------------
 
Rotational constants in cm-1:     8.359053     7.036391     3.820453 
Rotational constants in MHz : 250598.111807 210945.688182 114534.289386 

 Dipole components along the rotational axes: 
x,y,z [a.u.] :     0.000000     0.242271     0.000000 
x,y,z [Debye]:     0.000000     0.615804     0.000000 

 

Timings for individual modules:

Sum of individual times         ...       33.316 sec (=   0.555 min)
GTO integral calculation        ...        1.857 sec (=   0.031 min)   5.6 %
SCF iterations                  ...       31.459 sec (=   0.524 min)  94.4 %
                             ****ORCA TERMINATED NORMALLY****
TOTAL RUN TIME: 0 days 0 hours 0 minutes 34 seconds 785 msec
