
                                 *****************
                                 * O   R   C   A *
                                 *****************

                                            #,                                       
                                            ###                                      
                                            ####                                     
                                            #####                                    
                                            ######                                   
                                           ########,                                 
                                     ,,################,,,,,                         
                               ,,#################################,,                 
                          ,,##########################################,,             
                       ,#########################################, ''#####,          
                    ,#############################################,,   '####,        
                  ,##################################################,,,,####,       
                ,###########''''           ''''###############################       
              ,#####''   ,,,,##########,,,,          '''####'''          '####       
            ,##' ,,,,###########################,,,                        '##       
           ' ,,###''''                  '''############,,,                           
         ,,##''                                '''############,,,,        ,,,,,,###''
      ,#''                                            '''#######################'''  
     '                                                          ''''####''''         
             ,#######,   #######,   ,#######,      ##                                
            ,#'     '#,  ##    ##  ,#'     '#,    #''#        ######   ,####,        
            ##       ##  ##   ,#'  ##            #'  '#       #        #'  '#        
            ##       ##  #######   ##           ,######,      #####,   #    #        
            '#,     ,#'  ##    ##  '#,     ,#' ,#      #,         ##   #,  ,#        
             '#######'   ##     ##  '#######'  #'      '#     #####' # '####'        



                  #######################################################
                  #                        -***-                        #
                  #          Department of theory and spectroscopy      #
                  #    Directorship and core code : Frank Neese         #
                  #        Max Planck Institute fuer Kohlenforschung    #
                  #                Kaiser Wilhelm Platz 1               #
                  #                 D-45470 Muelheim/Ruhr               #
                  #                      Germany                        #
                  #                                                     #
                  #                  All rights reserved                #
                  #                        -***-                        #
                  #######################################################


                         Program Version 5.0.3 -  RELEASE  -


 With contributions from (in alphabetic order):
   Daniel Aravena         : Magnetic Suceptibility
   Michael Atanasov       : Ab Initio Ligand Field Theory (pilot matlab implementation)
   Alexander A. Auer      : GIAO ZORA, VPT2 properties, NMR spectrum
   Ute Becker             : Parallelization
   Giovanni Bistoni       : ED, misc. LED, open-shell LED, HFLD
   Martin Brehm           : Molecular dynamics
   Dmytro Bykov           : SCF Hessian
   Vijay G. Chilkuri      : MRCI spin determinant printing, contributions to CSF-ICE
   Dipayan Datta          : RHF DLPNO-CCSD density
   Achintya Kumar Dutta   : EOM-CC, STEOM-CC
   Dmitry Ganyushin       : Spin-Orbit,Spin-Spin,Magnetic field MRCI
   Miquel Garcia          : C-PCM and meta-GGA Hessian, CC/C-PCM, Gaussian charge scheme
   Yang Guo               : DLPNO-NEVPT2, F12-NEVPT2, CIM, IAO-localization
   Andreas Hansen         : Spin unrestricted coupled pair/coupled cluster methods
   Benjamin Helmich-Paris : MC-RPA, TRAH-SCF, COSX integrals
   Lee Huntington         : MR-EOM, pCC
   Robert Izsak           : Overlap fitted RIJCOSX, COSX-SCS-MP3, EOM
   Marcus Kettner         : VPT2
   Christian Kollmar      : KDIIS, OOCD, Brueckner-CCSD(T), CCSD density, CASPT2, CASPT2-K
   Simone Kossmann        : Meta GGA functionals, TD-DFT gradient, OOMP2, MP2 Hessian
   Martin Krupicka        : Initial AUTO-CI
   Lucas Lang             : DCDCAS
   Marvin Lechner         : AUTO-CI (C++ implementation), FIC-MRCC
   Dagmar Lenk            : GEPOL surface, SMD
   Dimitrios Liakos       : Extrapolation schemes; Compound Job, initial MDCI parallelization
   Dimitrios Manganas     : Further ROCIS development; embedding schemes
   Dimitrios Pantazis     : SARC Basis sets
   Anastasios Papadopoulos: AUTO-CI, single reference methods and gradients
   Taras Petrenko         : DFT Hessian,TD-DFT gradient, ASA, ECA, R-Raman, ABS, FL, XAS/XES, NRVS
   Peter Pinski           : DLPNO-MP2, DLPNO-MP2 Gradient
   Christoph Reimann      : Effective Core Potentials
   Marius Retegan         : Local ZFS, SOC
   Christoph Riplinger    : Optimizer, TS searches, QM/MM, DLPNO-CCSD(T), (RO)-DLPNO pert. Triples
   Tobias Risthaus        : Range-separated hybrids, TD-DFT gradient, RPA, STAB
   Michael Roemelt        : Original ROCIS implementation
   Masaaki Saitow         : Open-shell DLPNO-CCSD energy and density
   Barbara Sandhoefer     : DKH picture change effects
   Avijit Sen             : IP-ROCIS
   Kantharuban Sivalingam : CASSCF convergence, NEVPT2, FIC-MRCI
   Bernardo de Souza      : ESD, SOC TD-DFT
   Georgi Stoychev        : AutoAux, RI-MP2 NMR, DLPNO-MP2 response
   Willem Van den Heuvel  : Paramagnetic NMR
   Boris Wezisla          : Elementary symmetry handling
   Frank Wennmohs         : Technical directorship


 We gratefully acknowledge several colleagues who have allowed us to
 interface, adapt or use parts of their codes:
   Stefan Grimme, W. Hujo, H. Kruse, P. Pracht,  : VdW corrections, initial TS optimization,
                  C. Bannwarth, S. Ehlert          DFT functionals, gCP, sTDA/sTD-DF
   Ed Valeev, F. Pavosevic, A. Kumar             : LibInt (2-el integral package), F12 methods
   Garnet Chan, S. Sharma, J. Yang, R. Olivares  : DMRG
   Ulf Ekstrom                                   : XCFun DFT Library
   Mihaly Kallay                                 : mrcc  (arbitrary order and MRCC methods)
   Jiri Pittner, Ondrej Demel                    : Mk-CCSD
   Frank Weinhold                                : gennbo (NPA and NBO analysis)
   Christopher J. Cramer and Donald G. Truhlar   : smd solvation model
   Lars Goerigk                                  : TD-DFT with DH, B97 family of functionals
   V. Asgeirsson, H. Jonsson                     : NEB implementation
   FAccTs GmbH                                   : IRC, NEB, NEB-TS, DLPNO-Multilevel, CI-OPT
                                                   MM, QMMM, 2- and 3-layer-ONIOM, Crystal-QMMM,
                                                   LR-CPCM, SF, NACMEs, symmetry and pop. for TD-DFT,
                                                   nearIR, NL-DFT gradient (VV10), updates on ESD,
                                                   ML-optimized integration grids
   S Lehtola, MJT Oliveira, MAL Marques          : LibXC Library
   Liviu Ungur et al                             : ANISO software


 Your calculation uses the libint2 library for the computation of 2-el integrals
 For citations please refer to: http://libint.valeyev.net

 Your ORCA version has been built with support for libXC version: 5.1.0
 For citations please refer to: https://tddft.org/programs/libxc/

 This ORCA versions uses:
   CBLAS   interface :  Fast vector & matrix operations
   LAPACKE interface :  Fast linear algebra routines
   SCALAPACK package :  Parallel linear algebra routines
   Shared memory     :  Shared parallel matrices
   BLAS/LAPACK       :  OpenBLAS 0.3.15  USE64BITINT DYNAMIC_ARCH NO_AFFINITY Haswell SINGLE_THREADED
        Core in use  :  Haswell
   Copyright (c) 2011-2014, The OpenBLAS Project




***************************************
The coordinates will be read from file: h12.xyz
***************************************


Your calculation utilizes the geometrical counterpoise correction gCP
Please cite in your paper:
H.Kruse, S. Grimme J.Chem.Phys., 136, (2012), 154101 
   

Your calculation utilizes the atom-pairwise dispersion correction
with the Becke-Johnson damping scheme (D3BJ)
Cite in your paper:
S.Grimme, S.Ehrlich, L.Goerigk, J Comput Chem, (2011), 32, 1456–1465 
S.Grimme, J.Antony, S.Ehrlich and H.Krieg, J.Chem.Phys., 132, (2010), 154104 
   

Your calculation employs the composite approach PBEh-3c.
Please cite in your paper:
S. Grimme, J. G. Brandenburg, C. Bannwarth, A. Hansen J.Chem.Phys., 143, (2015), 054107 
   

================================================================================

----- Orbital basis set information -----
Your calculation utilizes the basis: def2-mSVP

----- AuxJ basis set information -----
Your calculation utilizes the auxiliary basis: def2/J
   F. Weigend, Phys. Chem. Chem. Phys. 8, 1057 (2006).

================================================================================
                                        WARNINGS
                       Please study these warnings very carefully!
================================================================================


INFO   : the flag for use of the SHARK integral package has been found!

================================================================================
                                       INPUT FILE
================================================================================
NAME = pbeh-3c.inp
|  1> ! PBEh-3c def2/J TightSCF DefGrid3
|  2> 
|  3> %maxcore 60000
|  4> 
|  5> %pal
|  6> nprocs 4
|  7> end
|  8> 
|  9> *xyzfile 0 1 h12.xyz
| 10> 
| 11>                          ****END OF INPUT****
================================================================================

                       ****************************
                       * Single Point Calculation *
                       ****************************

---------------------------------
CARTESIAN COORDINATES (ANGSTROEM)
---------------------------------
  C     -1.592464   -0.812349   -1.313924
  C     -1.242750    0.272221   -0.301465
  C      0.000000    0.000000    0.558980
  C      1.242750   -0.272221   -0.301465
  C      1.592464    0.812349   -1.313924
  C      0.233903    1.215699    1.455242
  C     -0.233903   -1.215699    1.455242
  H     -1.766903   -1.772678   -0.831246
  H     -2.499290   -0.549914   -1.857140
  H     -0.798507   -0.946542   -2.047365
  H     -2.088833    0.421059    0.375479
  H     -1.106439    1.221440   -0.824758
  H      2.088833   -0.421059    0.375479
  H      1.106439   -1.221440   -0.824758
  H      1.766903    1.772678   -0.831246
  H      2.499290    0.549914   -1.857140
  H      0.798507    0.946542   -2.047365
  H      0.348262    2.129573    0.872829
  H     -0.611859    1.357537    2.130019
  H      1.130914    1.083727    2.062841
  H     -0.348262   -2.129573    0.872829
  H      0.611859   -1.357537    2.130019
  H     -1.130914   -1.083727    2.062841

----------------------------
CARTESIAN COORDINATES (A.U.)
----------------------------
  NO LB      ZA    FRAG     MASS         X           Y           Z
   0 C     6.0000    0    12.011   -3.009322   -1.535117   -2.482957
   1 C     6.0000    0    12.011   -2.348456    0.514424   -0.569687
   2 C     6.0000    0    12.011    0.000000    0.000000    1.056319
   3 C     6.0000    0    12.011    2.348456   -0.514424   -0.569687
   4 C     6.0000    0    12.011    3.009322    1.535117   -2.482957
   5 C     6.0000    0    12.011    0.442013    2.297337    2.750009
   6 C     6.0000    0    12.011   -0.442013   -2.297337    2.750009
   7 H     1.0000    0     1.008   -3.338964   -3.349876   -1.570827
   8 H     1.0000    0     1.008   -4.722973   -1.039187   -3.509486
   9 H     1.0000    0     1.008   -1.508960   -1.788704   -3.868960
  10 H     1.0000    0     1.008   -3.947322    0.795687    0.709552
  11 H     1.0000    0     1.008   -2.090867    2.308186   -1.558568
  12 H     1.0000    0     1.008    3.947322   -0.795687    0.709552
  13 H     1.0000    0     1.008    2.090867   -2.308186   -1.558568
  14 H     1.0000    0     1.008    3.338964    3.349876   -1.570827
  15 H     1.0000    0     1.008    4.722973    1.039187   -3.509486
  16 H     1.0000    0     1.008    1.508960    1.788704   -3.868960
  17 H     1.0000    0     1.008    0.658119    4.024311    1.649409
  18 H     1.0000    0     1.008   -1.156246    2.565373    4.025152
  19 H     1.0000    0     1.008    2.137118    2.047947    3.898204
  20 H     1.0000    0     1.008   -0.658119   -4.024311    1.649409
  21 H     1.0000    0     1.008    1.156246   -2.565373    4.025152
  22 H     1.0000    0     1.008   -2.137118   -2.047947    3.898204

--------------------------------
INTERNAL COORDINATES (ANGSTROEM)
--------------------------------
 C      0   0   0     0.000000000000     0.00000000     0.00000000
 C      1   0   0     1.524357383392     0.00000000     0.00000000
 C      2   1   0     1.535870188659   115.57082753     0.00000000
 C      3   2   1     1.535870188659   111.85615314    55.57848152
 C      4   3   2     1.524357383392   115.57082753    55.57848152
 C      3   2   1     1.528371410782   108.14245730   177.13684682
 C      3   2   1     1.528371410782   110.22325479   295.22715008
 H      1   2   3     1.088870675501   111.70520600    58.75952524
 H      1   2   3     1.089168361246   110.53840621   178.37528053
 H      1   2   3     1.089179508055   111.57271178   297.94511534
 H      2   1   3     1.093737951541   109.29512554   238.41408444
 H      2   1   3     1.092443050726   109.18900265   122.94177416
 H      4   3   2     1.093737951541   107.65654553   178.03980822
 H      4   3   2     1.092443050726   108.74766076   292.40363880
 H      5   4   3     1.088870675501   111.70520600    58.75952524
 H      5   4   3     1.089168361246   110.53840621   178.37528053
 H      5   4   3     1.089179508055   111.57271178   297.94511534
 H      6   3   2     1.089701627057   111.69811912   302.79808653
 H      6   3   2     1.091217265909   110.32815743    62.46684163
 H      6   3   2     1.091430734365   110.85825958   182.01713383
 H      7   3   2     1.089701627057   111.69811912    65.35934839
 H      7   3   2     1.091217265909   110.32815743   185.02810350
 H      7   3   2     1.091430734365   110.85825958   304.57839569

---------------------------
INTERNAL COORDINATES (A.U.)
---------------------------
 C      0   0   0     0.000000000000     0.00000000     0.00000000
 C      1   0   0     2.880617984832     0.00000000     0.00000000
 C      2   1   0     2.902374033819   115.57082753     0.00000000
 C      3   2   1     2.902374033819   111.85615314    55.57848152
 C      4   3   2     2.880617984832   115.57082753    55.57848152
 C      3   2   1     2.888203397294   108.14245730   177.13684682
 C      3   2   1     2.888203397294   110.22325479   295.22715008
 H      1   2   3     2.057667371955   111.70520600    58.75952524
 H      1   2   3     2.058229916488   110.53840621   178.37528053
 H      1   2   3     2.058250980903   111.57271178   297.94511534
 H      2   1   3     2.066865190689   109.29512554   238.41408444
 H      2   1   3     2.064418182777   109.18900265   122.94177416
 H      4   3   2     2.066865190689   107.65654553   178.03980822
 H      4   3   2     2.064418182777   108.74766076   292.40363880
 H      5   4   3     2.057667371955   111.70520600    58.75952524
 H      5   4   3     2.058229916488   110.53840621   178.37528053
 H      5   4   3     2.058250980903   111.57271178   297.94511534
 H      6   3   2     2.059237642826   111.69811912   302.79808653
 H      6   3   2     2.062101785175   110.32815743    62.46684163
 H      6   3   2     2.062505182094   110.85825958   182.01713383
 H      7   3   2     2.059237642826   111.69811912    65.35934839
 H      7   3   2     2.062101785175   110.32815743   185.02810350
 H      7   3   2     2.062505182094   110.85825958   304.57839569

---------------------
BASIS SET INFORMATION
---------------------
There are 2 groups of distinct atoms

 Group   1 Type C   : 8s4p1d contracted to 4s2p1d pattern {5111/31/1}
 Group   2 Type H   : 4s contracted to 2s pattern {31}

Atom   0C    basis set group =>   1
Atom   1C    basis set group =>   1
Atom   2C    basis set group =>   1
Atom   3C    basis set group =>   1
Atom   4C    basis set group =>   1
Atom   5C    basis set group =>   1
Atom   6C    basis set group =>   1
Atom   7H    basis set group =>   2
Atom   8H    basis set group =>   2
Atom   9H    basis set group =>   2
Atom  10H    basis set group =>   2
Atom  11H    basis set group =>   2
Atom  12H    basis set group =>   2
Atom  13H    basis set group =>   2
Atom  14H    basis set group =>   2
Atom  15H    basis set group =>   2
Atom  16H    basis set group =>   2
Atom  17H    basis set group =>   2
Atom  18H    basis set group =>   2
Atom  19H    basis set group =>   2
Atom  20H    basis set group =>   2
Atom  21H    basis set group =>   2
Atom  22H    basis set group =>   2
---------------------------------
AUXILIARY/J BASIS SET INFORMATION
---------------------------------
There are 2 groups of distinct atoms

 Group   1 Type C   : 12s5p4d2f1g contracted to 6s4p3d1f1g pattern {711111/2111/211/2/1}
 Group   2 Type H   : 5s2p1d contracted to 3s1p1d pattern {311/2/1}

Atom   0C    basis set group =>   1
Atom   1C    basis set group =>   1
Atom   2C    basis set group =>   1
Atom   3C    basis set group =>   1
Atom   4C    basis set group =>   1
Atom   5C    basis set group =>   1
Atom   6C    basis set group =>   1
Atom   7H    basis set group =>   2
Atom   8H    basis set group =>   2
Atom   9H    basis set group =>   2
Atom  10H    basis set group =>   2
Atom  11H    basis set group =>   2
Atom  12H    basis set group =>   2
Atom  13H    basis set group =>   2
Atom  14H    basis set group =>   2
Atom  15H    basis set group =>   2
Atom  16H    basis set group =>   2
Atom  17H    basis set group =>   2
Atom  18H    basis set group =>   2
Atom  19H    basis set group =>   2
Atom  20H    basis set group =>   2
Atom  21H    basis set group =>   2
Atom  22H    basis set group =>   2


           ************************************************************
           *        Program running with 4 parallel MPI-processes     *
           *              working on a common directory               *
           ************************************************************
------------------------------------------------------------------------------
                           ORCA GTO INTEGRAL CALCULATION
                           -- RI-GTO INTEGRALS CHOSEN --
------------------------------------------------------------------------------
------------------------------------------------------------------------------
                   ___                                                        
                  /   \      - P O W E R E D   B Y -                         
                 /     \                                                     
                 |  |  |   _    _      __       _____    __    __             
                 |  |  |  | |  | |    /  \     |  _  \  |  |  /  |          
                  \  \/   | |  | |   /    \    | | | |  |  | /  /          
                 / \  \   | |__| |  /  /\  \   | |_| |  |  |/  /          
                |  |  |   |  __  | /  /__\  \  |    /   |      \           
                |  |  |   | |  | | |   __   |  |    \   |  |\   \          
                \     /   | |  | | |  |  |  |  | |\  \  |  | \   \       
                 \___/    |_|  |_| |__|  |__|  |_| \__\ |__|  \__/        
                                                                              
                      - O R C A' S   B I G   F R I E N D -                    
                                      &                                       
                       - I N T E G R A L  F E E D E R -                       
                                                                              
 v1 FN, 2020, v2 2021                                                         
------------------------------------------------------------------------------


Reading SHARK input file pbeh-3c.SHARKINP.tmp ... ok
----------------------
SHARK INTEGRAL PACKAGE
----------------------

Number of atoms                             ...     23
Number of basis functions                   ...    137
Number of shells                            ...     81
Maximum angular momentum                    ...      2
Integral batch strategy                     ... SHARK/LIBINT Hybrid
RI-J (if used) integral strategy            ... SPLIT-RIJ (Revised 2003 algorithm where possible)
Printlevel                                  ...      1
Contraction scheme used                     ... SEGMENTED contraction
Coulomb Range Separation                    ... NOT USED
Exchange Range Separation                   ... NOT USED
Finite Nucleus Model                        ... NOT USED
Auxiliary Coulomb fitting basis             ... AVAILABLE
   # of basis functions in Aux-J            ...    519
   # of shells in Aux-J                     ...    185
   Maximum angular momentum in Aux-J        ...      4
Auxiliary J/K fitting basis                 ... NOT available
Auxiliary Correlation fitting basis         ... NOT available
Auxiliary 'external' fitting basis          ... NOT available
Integral threshold                          ...     2.500000e-11
Primitive cut-off                           ...     2.500000e-12
Primitive pair pre-selection threshold      ...     2.500000e-12

Calculating pre-screening integrals         ... done (  0.1 sec) Dimension = 81
Organizing shell pair data                  ... done (  0.1 sec)
Shell pair information
Total number of shell pairs                 ...      3321
Shell pairs after pre-screening             ...      3155
Total number of primitive shell pairs       ...     12229
Primitive shell pairs kept                  ...      8281
          la=0 lb=0:   1678 shell pairs
          la=1 lb=0:    836 shell pairs
          la=1 lb=1:    105 shell pairs
          la=2 lb=0:    410 shell pairs
          la=2 lb=1:     98 shell pairs
          la=2 lb=2:     28 shell pairs

Calculating one electron integrals          ... done (  0.0 sec)
Calculating RI/J V-Matrix + Cholesky decomp.... done (  0.1 sec)
Calculating Nuclear repulsion               ... done (  0.0 sec) ENN=    344.512844028687 Eh

SHARK setup successfully completed in   0.8 seconds

Maximum memory used throughout the entire GTOINT-calculation: 11.8 MB


           ************************************************************
           *        Program running with 4 parallel MPI-processes     *
           *              working on a common directory               *
           ************************************************************
-------------------------------------------------------------------------------
                                 ORCA SCF
-------------------------------------------------------------------------------

------------
SCF SETTINGS
------------
Hamiltonian:
 Density Functional     Method          .... DFT(GTOs)
 Exchange Functional    Exchange        .... PBE
   PBE kappa parameter   XKappa         ....  1.024500
   PBE mue parameter    XMuePBE         ....  0.123457
 Correlation Functional Correlation     .... PBE
   PBE beta parameter  CBetaPBE         ....  0.030000
 LDA part of GGA corr.  LDAOpt          .... PW91-LDA
 Gradients option       PostSCFGGA      .... off
 Hybrid DFT is turned on
   Fraction HF Exchange ScalHFX         ....  0.420000
   Scaling of DF-GGA-X  ScalDFX         ....  0.580000
   Scaling of DF-GGA-C  ScalDFC         ....  1.000000
   Scaling of DF-LDA-C  ScalLDAC        ....  1.000000
   Perturbative correction              ....  0.000000
   Density functional embedding theory  .... OFF
 RI-approximation to the Coulomb term is turned on
   Number of AuxJ basis functions       .... 519
   RIJ-ON(X) (HFX calculated with O(N)) .... on
   Number of AuxJ basis functions       .... 519
   RIJ-COSX (HFX calculated with COS-X)).... on


General Settings:
 Integral files         IntName         .... pbeh-3c
 Hartree-Fock type      HFTyp           .... RHF
 Total Charge           Charge          ....    0
 Multiplicity           Mult            ....    1
 Number of Electrons    NEL             ....   58
 Basis Dimension        Dim             ....  137
 Nuclear Repulsion      ENuc            ....    344.5128440287 Eh

Convergence Acceleration:
 DIIS                   CNVDIIS         .... on
   Start iteration      DIISMaxIt       ....    12
   Startup error        DIISStart       ....  0.200000
   # of expansion vecs  DIISMaxEq       ....     5
   Bias factor          DIISBfac        ....   1.050
   Max. coefficient     DIISMaxC        ....  10.000
 Trust-Rad. Augm. Hess. CNVTRAH         .... auto
   Auto Start mean grad. ratio tolernc. ....  1.125000
   Auto Start start iteration           ....    20
   Auto Start num. interpolation iter.  ....    10
   Max. Number of Micro iterations      ....    16
   Max. Number of Macro iterations      .... Maxiter - #DIIS iter
   Number of Davidson start vectors     ....     2
   Converg. threshold I  (grad. norm)   ....   1.000e-05
   Converg. threshold II (energy diff.) ....   1.000e-08
   Grad. Scal. Fac. for Micro threshold ....   0.100
   Minimum threshold for Micro iter.    ....   0.010
   NR start threshold (gradient norm)   ....   0.001
   Initial trust radius                 ....   0.400
   Minimum AH scaling param. (alpha)    ....   1.000
   Maximum AH scaling param. (alpha)    .... 1000.000
   Orbital update algorithm             .... Taylor
   White noise on init. David. guess    .... on
   Maximum white noise                  ....   0.010
   Quad. conv. algorithm                .... NR
   COSX micro iterations for RIJONX calc.... off
 SOSCF                  CNVSOSCF        .... on
   Start iteration      SOSCFMaxIt      ....   150
   Startup grad/error   SOSCFStart      ....  0.003300
 Level Shifting         CNVShift        .... on
   Level shift para.    LevelShift      ....    0.2500
   Turn off err/grad.   ShiftErr        ....    0.0010
 Zerner damping         CNVZerner       .... off
 Static damping         CNVDamp         .... on
   Fraction old density DampFac         ....    0.7000
   Max. Damping (<1)    DampMax         ....    0.9800
   Min. Damping (>=0)   DampMin         ....    0.0000
   Turn off err/grad.   DampErr         ....    0.1000
 Fernandez-Rico         CNVRico         .... off

SCF Procedure:
 Maximum # iterations   MaxIter         ....   125
 SCF integral mode      SCFMode         .... Direct
   Integral package                     .... SHARK and LIBINT hybrid scheme
 Reset frequency        DirectResetFreq ....    20
 Integral Threshold     Thresh          ....  2.500e-11 Eh
 Primitive CutOff       TCut            ....  2.500e-12 Eh

Convergence Tolerance:
 Convergence Check Mode ConvCheckMode   .... Total+1el-Energy
 Convergence forced     ConvForced      .... 0
 Energy Change          TolE            ....  1.000e-08 Eh
 1-El. energy change                    ....  1.000e-05 Eh
 Orbital Gradient       TolG            ....  1.000e-05
 Orbital Rotation angle TolX            ....  1.000e-05
 DIIS Error             TolErr          ....  5.000e-07


Diagonalization of the overlap matrix:
Smallest eigenvalue                        ... 4.916e-03
Time for diagonalization                   ...    0.003 sec
Threshold for overlap eigenvalues          ... 1.000e-08
Number of eigenvalues below threshold      ... 0
Time for construction of square roots      ...    0.023 sec
Total time needed                          ...    0.027 sec

--------------------------------
INITIAL GUESS: MINIMAL BASIS EHT
--------------------------------
The minimal basis has 51 functions
EHT matrix was diagonalized
Basis set overlap was calculated now projecting the orbitals
Using GuessMode=FMatrix for the initial guess
C*T matrix was formed
Effective Fockian was calculated
Effective Fockian was diagonalized
Initial density was built
                      ------------------
                      INITIAL GUESS DONE
                      ------------------
-------------------
DFT GRID GENERATION
-------------------

General Integration Accuracy     IntAcc      ... 4.959
Radial Grid Type                 RadialGrid  ... OptM3 with GC (2021)
Angular Grid (max. ang.)         AngularGrid ... 6 (Lebedev-590)
Angular grid pruning method      GridPruning ... 4 (adaptive)
Weight generation scheme         WeightScheme... Becke
Basis function cutoff            BFCut       ... 1.0000e-11
Integration weight cutoff        WCut        ... 1.0000e-14
Angular grids for H and He will be reduced by one unit
Partially contracted basis set               ... off
Rotationally invariant grid construction     ... off

Total number of grid points                  ...   236254
Total number of batches                      ...     3704
Average number of points per batch           ...       63
Average number of grid points per atom       ...    10272
Time for grid setup =    6.569 sec

--------------------
COSX GRID GENERATION
--------------------

GRIDX 1
-------
General Integration Accuracy     IntAcc      ... 4.020
Radial Grid Type                 RadialGrid  ... OptM3 with GC (2021)
Angular Grid (max. ang.)         AngularGrid ... 2 (Lebedev-110)
Angular grid pruning method      GridPruning ... 4 (adaptive)
Weight generation scheme         WeightScheme... Becke
Basis function cutoff            BFCut       ... 1.0000e-11
Integration weight cutoff        WCut        ... 1.0000e-14
Angular grids for H and He will be reduced by one unit
Partially contracted basis set               ... on
Rotationally invariant grid construction     ... off

Total number of grid points                  ...    24249
Total number of batches                      ...      390
Average number of points per batch           ...       62
Average number of grid points per atom       ...     1054
UseSFitting                                  ... on

GRIDX 2
-------
General Integration Accuracy     IntAcc      ... 4.338
Radial Grid Type                 RadialGrid  ... OptM3 with GC (2021)
Angular Grid (max. ang.)         AngularGrid ... 3 (Lebedev-194)
Angular grid pruning method      GridPruning ... 4 (adaptive)
Weight generation scheme         WeightScheme... Becke
Basis function cutoff            BFCut       ... 1.0000e-11
Integration weight cutoff        WCut        ... 1.0000e-14
Angular grids for H and He will be reduced by one unit
Partially contracted basis set               ... on
Rotationally invariant grid construction     ... off

Total number of grid points                  ...    52614
Total number of batches                      ...      833
Average number of points per batch           ...       63
Average number of grid points per atom       ...     2288
UseSFitting                                  ... on

GRIDX 3
-------
General Integration Accuracy     IntAcc      ... 4.871
Radial Grid Type                 RadialGrid  ... OptM3 with GC (2021)
Angular Grid (max. ang.)         AngularGrid ... 4 (Lebedev-302)
Angular grid pruning method      GridPruning ... 4 (adaptive)
Weight generation scheme         WeightScheme... Becke
Basis function cutoff            BFCut       ... 1.0000e-11
Integration weight cutoff        WCut        ... 1.0000e-14
Angular grids for H and He will be reduced by one unit
Partially contracted basis set               ... on
Rotationally invariant grid construction     ... off

Total number of grid points                  ...   105397
Total number of batches                      ...     1658
Average number of points per batch           ...       63
Average number of grid points per atom       ...     4582
UseSFitting                                  ... on

Time for X-Grid setup             =    6.982 sec

--------------
SCF ITERATIONS
--------------
ITER       Energy         Delta-E        Max-DP      RMS-DP      [F,P]     Damp
               ***  Starting incremental Fock matrix formation  ***
  0   -275.2971000039   0.000000000000 0.06554934  0.00213082  0.4031803 0.7000
  1   -275.4471928815  -0.150092877578 0.04750450  0.00163031  0.2856331 0.7000
                      *** Initiating the SOSCF procedure ***
                      *** Re-Reading the Fockian *** 
                      *** Removing any level shift *** 
ITER      Energy       Delta-E        Grad      Rot      Max-DP    RMS-DP
  2   -275.55446148  -0.1072685938  0.003280  0.003280  0.119375  0.004090
               *** Restarting incremental Fock matrix formation ***
  3   -275.81066457  -0.2562030991  0.007675  0.006278  0.024375  0.000833
  4   -275.81134648  -0.0006819072  0.001831  0.001836  0.003505  0.000214
  5   -275.81152572  -0.0001792390  0.001425  0.000491  0.001323  0.000069
  6   -275.81153984  -0.0000141185  0.000183  0.000122  0.000562  0.000016
  7   -275.81154057  -0.0000007328  0.000151  0.000069  0.000282  0.000010
  8   -275.81154099  -0.0000004148  0.000016  0.000006  0.000027  0.000001
                 **** Energy Check signals convergence ****
              ***Rediagonalizing the Fockian in SOSCF/NRSCF***

               *****************************************************
               *                     SUCCESS                       *
               *           SCF CONVERGED AFTER   9 CYCLES          *
               *****************************************************

Old exchange energy                            =    -17.647290012 Eh
New exchange energy                            =    -17.647297549 Eh
Exchange energy change after final integration =     -0.000007537 Eh
Total energy after final integration           =   -275.811548533 Eh
Final COS-X integration done in                =     7.014 sec

----------------
TOTAL SCF ENERGY
----------------

Total Energy       :         -275.81154853 Eh           -7505.21379 eV

Components:
Nuclear Repulsion  :          344.51284403 Eh            9374.67109 eV
Electronic Energy  :         -620.32439256 Eh          -16879.88488 eV
One Electron Energy:        -1052.96956179 Eh          -28652.75845 eV
Two Electron Energy:          432.64516923 Eh           11772.87358 eV
Max COSX asymmetry :            0.00000152 Eh               0.00004 eV

Virial components:
Potential Energy   :         -549.28156101 Eh          -14946.71115 eV
Kinetic Energy     :          273.47001248 Eh            7441.49736 eV
Virial Ratio       :            2.00856231


DFT components:
N(Alpha)           :       29.000011666309 electrons
N(Beta)            :       29.000011666309 electrons
N(Total)           :       58.000023332618 electrons
E(X)               :      -23.365215232280 Eh       
E(C)               :       -2.451828658960 Eh       
E(XC)              :      -25.817043891240 Eh       
DFET-embed. en.    :        0.000000000000 Eh       

---------------
SCF CONVERGENCE
---------------

  Last Energy change         ...   -8.8622e-09  Tolerance :   1.0000e-08
  Last MAX-Density change    ...    1.1102e-15  Tolerance :   1.0000e-07
  Last RMS-Density change    ...    3.2615e-17  Tolerance :   5.0000e-09
  Last Orbital Gradient      ...    2.0985e-06  Tolerance :   1.0000e-05
  Last Orbital Rotation      ...    1.7321e-06  Tolerance :   1.0000e-05

             **** THE GBW FILE WAS UPDATED (pbeh-3c.gbw) ****
             **** DENSITY pbeh-3c.scfp WAS UPDATED ****
             **** ENERGY FILE WAS UPDATED (pbeh-3c.en.tmp) ****
             **** THE GBW FILE WAS UPDATED (pbeh-3c.gbw) ****
             **** DENSITY pbeh-3c.scfp WAS UPDATED ****
----------------
ORBITAL ENERGIES
----------------

  NO   OCC          E(Eh)            E(eV) 
   0   2.0000     -10.443136      -284.1722 
   1   2.0000     -10.425280      -283.6863 
   2   2.0000     -10.425222      -283.6847 
   3   2.0000     -10.418696      -283.5071 
   4   2.0000     -10.418685      -283.5068 
   5   2.0000     -10.416465      -283.4464 
   6   2.0000     -10.416408      -283.4449 
   7   2.0000      -0.923098       -25.1188 
   8   2.0000      -0.829766       -22.5791 
   9   2.0000      -0.812407       -22.1067 
  10   2.0000      -0.762053       -20.7365 
  11   2.0000      -0.701194       -19.0805 
  12   2.0000      -0.692124       -18.8337 
  13   2.0000      -0.584593       -15.9076 
  14   2.0000      -0.525915       -14.3109 
  15   2.0000      -0.524919       -14.2838 
  16   2.0000      -0.493535       -13.4298 
  17   2.0000      -0.483378       -13.1534 
  18   2.0000      -0.455049       -12.3825 
  19   2.0000      -0.450657       -12.2630 
  20   2.0000      -0.432959       -11.7814 
  21   2.0000      -0.428207       -11.6521 
  22   2.0000      -0.410874       -11.1805 
  23   2.0000      -0.408329       -11.1112 
  24   2.0000      -0.391394       -10.6504 
  25   2.0000      -0.384264       -10.4564 
  26   2.0000      -0.354751        -9.6533 
  27   2.0000      -0.352958        -9.6045 
  28   2.0000      -0.346332        -9.4242 
  29   0.0000       0.119221         3.2442 
  30   0.0000       0.159925         4.3518 
  31   0.0000       0.169359         4.6085 
  32   0.0000       0.182260         4.9596 
  33   0.0000       0.184044         5.0081 
  34   0.0000       0.186122         5.0646 
  35   0.0000       0.199225         5.4212 
  36   0.0000       0.208213         5.6658 
  37   0.0000       0.209184         5.6922 
  38   0.0000       0.216207         5.8833 
  39   0.0000       0.232749         6.3334 
  40   0.0000       0.243566         6.6278 
  41   0.0000       0.256474         6.9790 
  42   0.0000       0.266482         7.2513 
  43   0.0000       0.269672         7.3381 
  44   0.0000       0.273631         7.4459 
  45   0.0000       0.279839         7.6148 
  46   0.0000       0.280365         7.6291 
  47   0.0000       0.289913         7.8889 
  48   0.0000       0.300091         8.1659 
  49   0.0000       0.308718         8.4006 
  50   0.0000       0.326726         8.8907 
  51   0.0000       0.494562        13.4577 
  52   0.0000       0.497613        13.5407 
  53   0.0000       0.504914        13.7394 
  54   0.0000       0.517789        14.0898 
  55   0.0000       0.531405        14.4603 
  56   0.0000       0.566567        15.4171 
  57   0.0000       0.586930        15.9712 
  58   0.0000       0.595653        16.2085 
  59   0.0000       0.636855        17.3297 
  60   0.0000       0.641238        17.4490 
  61   0.0000       0.669893        18.2287 
  62   0.0000       0.677054        18.4236 
  63   0.0000       0.687196        18.6995 
  64   0.0000       0.727507        19.7965 
  65   0.0000       0.738324        20.0908 
  66   0.0000       0.796811        21.6823 
  67   0.0000       0.804915        21.9029 
  68   0.0000       0.811885        22.0925 
  69   0.0000       0.882853        24.0237 
  70   0.0000       0.914288        24.8790 
  71   0.0000       0.956365        26.0240 
  72   0.0000       0.961591        26.1662 
  73   0.0000       1.008456        27.4415 
  74   0.0000       1.012659        27.5558 
  75   0.0000       1.024871        27.8881 
  76   0.0000       1.034406        28.1476 
  77   0.0000       1.038059        28.2470 
  78   0.0000       1.043155        28.3857 
  79   0.0000       1.059666        28.8350 
  80   0.0000       1.063739        28.9458 
  81   0.0000       1.079322        29.3698 
  82   0.0000       1.083864        29.4934 
  83   0.0000       1.111654        30.2496 
  84   0.0000       1.113256        30.2932 
  85   0.0000       1.125021        30.6134 
  86   0.0000       1.135836        30.9077 
  87   0.0000       1.138072        30.9685 
  88   0.0000       1.167834        31.7784 
  89   0.0000       1.276578        34.7374 
  90   0.0000       1.423300        38.7299 
  91   0.0000       1.436877        39.0994 
  92   0.0000       1.458151        39.6783 
  93   0.0000       1.499397        40.8007 
  94   0.0000       1.523916        41.4679 
  95   0.0000       1.576643        42.9026 
  96   0.0000       1.595052        43.4036 
  97   0.0000       1.680880        45.7391 
  98   0.0000       1.696782        46.1718 
  99   0.0000       1.710698        46.5505 
 100   0.0000       1.848911        50.3114 
 101   0.0000       1.870866        50.9089 
 102   0.0000       1.937213        52.7143 
 103   0.0000       1.964428        53.4548 
 104   0.0000       1.977992        53.8239 
 105   0.0000       2.001962        54.4762 
 106   0.0000       2.005903        54.5834 
 107   0.0000       2.050249        55.7901 
 108   0.0000       2.057347        55.9833 
 109   0.0000       2.149368        58.4873 
 110   0.0000       2.160529        58.7910 
 111   0.0000       2.177839        59.2620 
 112   0.0000       2.203918        59.9717 
 113   0.0000       2.209390        60.1206 
 114   0.0000       2.333726        63.5039 
 115   0.0000       2.341433        63.7136 
 116   0.0000       2.354268        64.0629 
 117   0.0000       2.377507        64.6952 
 118   0.0000       2.412291        65.6418 
 119   0.0000       2.415303        65.7237 
 120   0.0000       2.436259        66.2940 
 121   0.0000       2.444141        66.5085 
 122   0.0000       2.455820        66.8263 
 123   0.0000       2.529586        68.8335 
 124   0.0000       2.633097        71.6502 
 125   0.0000       2.683807        73.0301 
 126   0.0000       2.801447        76.2313 
 127   0.0000       2.814445        76.5850 
 128   0.0000       2.818057        76.6832 
 129   0.0000       2.841795        77.3292 
 130   0.0000      13.517192       367.8215 
 131   0.0000      13.740396       373.8952 
 132   0.0000      13.834636       376.4596 
 133   0.0000      13.905343       378.3836 
 134   0.0000      14.000300       380.9675 
 135   0.0000      14.044831       382.1793 
 136   0.0000      14.175933       385.7468 

                    ********************************
                    * MULLIKEN POPULATION ANALYSIS *
                    ********************************

-----------------------
MULLIKEN ATOMIC CHARGES
-----------------------
   0 C :   -0.656025
   1 C :   -0.394135
   2 C :   -0.085113
   3 C :   -0.394135
   4 C :   -0.656025
   5 C :   -0.618894
   6 C :   -0.618894
   7 H :    0.214401
   8 H :    0.222738
   9 H :    0.213577
  10 H :    0.209639
  11 H :    0.211793
  12 H :    0.209639
  13 H :    0.211793
  14 H :    0.214401
  15 H :    0.222738
  16 H :    0.213577
  17 H :    0.214172
  18 H :    0.213989
  19 H :    0.211300
  20 H :    0.214172
  21 H :    0.213989
  22 H :    0.211300
Sum of atomic charges:   -0.0000000

--------------------------------
MULLIKEN REDUCED ORBITAL CHARGES
--------------------------------
  0 C s       :     3.378186  s :     3.378186
      pz      :     1.063025  p :     3.240775
      px      :     1.124679
      py      :     1.053071
      dz2     :     0.002909  d :     0.037063
      dxz     :     0.012401
      dyz     :     0.008598
      dx2y2   :     0.009892
      dxy     :     0.003263
  1 C s       :     3.318553  s :     3.318553
      pz      :     0.998502  p :     3.031853
      px      :     1.004877
      py      :     1.028475
      dz2     :     0.003664  d :     0.043729
      dxz     :     0.013276
      dyz     :     0.011480
      dx2y2   :     0.011293
      dxy     :     0.004015
  2 C s       :     3.235314  s :     3.235314
      pz      :     0.930532  p :     2.795433
      px      :     0.940356
      py      :     0.924545
      dz2     :     0.006010  d :     0.054366
      dxz     :     0.013589
      dyz     :     0.014479
      dx2y2   :     0.013175
      dxy     :     0.007112
  3 C s       :     3.318553  s :     3.318553
      pz      :     0.998502  p :     3.031853
      px      :     1.004877
      py      :     1.028475
      dz2     :     0.003664  d :     0.043729
      dxz     :     0.013276
      dyz     :     0.011480
      dx2y2   :     0.011293
      dxy     :     0.004015
  4 C s       :     3.378186  s :     3.378186
      pz      :     1.063025  p :     3.240775
      px      :     1.124679
      py      :     1.053071
      dz2     :     0.002909  d :     0.037063
      dxz     :     0.012401
      dyz     :     0.008598
      dx2y2   :     0.009892
      dxy     :     0.003263
  5 C s       :     3.373705  s :     3.373705
      pz      :     1.066170  p :     3.208065
      px      :     1.121647
      py      :     1.020248
      dz2     :     0.001618  d :     0.037123
      dxz     :     0.012778
      dyz     :     0.009675
      dx2y2   :     0.010738
      dxy     :     0.002315
  6 C s       :     3.373706  s :     3.373706
      pz      :     1.066170  p :     3.208065
      px      :     1.121647
      py      :     1.020248
      dz2     :     0.001618  d :     0.037123
      dxz     :     0.012778
      dyz     :     0.009675
      dx2y2   :     0.010738
      dxy     :     0.002315
  7 H s       :     0.785599  s :     0.785599
  8 H s       :     0.777262  s :     0.777262
  9 H s       :     0.786423  s :     0.786423
 10 H s       :     0.790361  s :     0.790361
 11 H s       :     0.788207  s :     0.788207
 12 H s       :     0.790361  s :     0.790361
 13 H s       :     0.788207  s :     0.788207
 14 H s       :     0.785599  s :     0.785599
 15 H s       :     0.777262  s :     0.777262
 16 H s       :     0.786423  s :     0.786423
 17 H s       :     0.785828  s :     0.785828
 18 H s       :     0.786011  s :     0.786011
 19 H s       :     0.788700  s :     0.788700
 20 H s       :     0.785828  s :     0.785828
 21 H s       :     0.786011  s :     0.786011
 22 H s       :     0.788700  s :     0.788700


                     *******************************
                     * LOEWDIN POPULATION ANALYSIS *
                     *******************************

----------------------
LOEWDIN ATOMIC CHARGES
----------------------
   0 C :   -0.363757
   1 C :   -0.232574
   2 C :   -0.107201
   3 C :   -0.232574
   4 C :   -0.363757
   5 C :   -0.342087
   6 C :   -0.342087
   7 H :    0.124032
   8 H :    0.128354
   9 H :    0.123369
  10 H :    0.121978
  11 H :    0.121222
  12 H :    0.121978
  13 H :    0.121222
  14 H :    0.124032
  15 H :    0.128354
  16 H :    0.123369
  17 H :    0.123528
  18 H :    0.125587
  19 H :    0.123950
  20 H :    0.123528
  21 H :    0.125587
  22 H :    0.123950

-------------------------------
LOEWDIN REDUCED ORBITAL CHARGES
-------------------------------
  0 C s       :     2.946271  s :     2.946271
      pz      :     1.108722  p :     3.348099
      px      :     1.127076
      py      :     1.112301
      dz2     :     0.006126  d :     0.069387
      dxz     :     0.021872
      dyz     :     0.017270
      dx2y2   :     0.017790
      dxy     :     0.006329
  1 C s       :     2.907991  s :     2.907991
      pz      :     1.075392  p :     3.235106
      px      :     1.074121
      py      :     1.085593
      dz2     :     0.008015  d :     0.089477
      dxz     :     0.027041
      dyz     :     0.023389
      dx2y2   :     0.022352
      dxy     :     0.008680
  2 C s       :     2.841108  s :     2.841108
      pz      :     1.042710  p :     3.140175
      px      :     1.049474
      py      :     1.047991
      dz2     :     0.012510  d :     0.125918
      dxz     :     0.032255
      dyz     :     0.034503
      dx2y2   :     0.031175
      dxy     :     0.015475
  3 C s       :     2.907992  s :     2.907992
      pz      :     1.075392  p :     3.235106
      px      :     1.074121
      py      :     1.085593
      dz2     :     0.008015  d :     0.089477
      dxz     :     0.027041
      dyz     :     0.023389
      dx2y2   :     0.022352
      dxy     :     0.008680
  4 C s       :     2.946271  s :     2.946271
      pz      :     1.108722  p :     3.348099
      px      :     1.127076
      py      :     1.112301
      dz2     :     0.006126  d :     0.069387
      dxz     :     0.021872
      dyz     :     0.017270
      dx2y2   :     0.017790
      dxy     :     0.006329
  5 C s       :     2.950894  s :     2.950894
      pz      :     1.104551  p :     3.321305
      px      :     1.124772
      py      :     1.091981
      dz2     :     0.003710  d :     0.069888
      dxz     :     0.022105
      dyz     :     0.019274
      dx2y2   :     0.019806
      dxy     :     0.004993
  6 C s       :     2.950894  s :     2.950894
      pz      :     1.104551  p :     3.321305
      px      :     1.124772
      py      :     1.091981
      dz2     :     0.003710  d :     0.069888
      dxz     :     0.022105
      dyz     :     0.019274
      dx2y2   :     0.019806
      dxy     :     0.004993
  7 H s       :     0.875968  s :     0.875968
  8 H s       :     0.871646  s :     0.871646
  9 H s       :     0.876631  s :     0.876631
 10 H s       :     0.878022  s :     0.878022
 11 H s       :     0.878778  s :     0.878778
 12 H s       :     0.878022  s :     0.878022
 13 H s       :     0.878778  s :     0.878778
 14 H s       :     0.875968  s :     0.875968
 15 H s       :     0.871646  s :     0.871646
 16 H s       :     0.876631  s :     0.876631
 17 H s       :     0.876472  s :     0.876472
 18 H s       :     0.874413  s :     0.874413
 19 H s       :     0.876050  s :     0.876050
 20 H s       :     0.876472  s :     0.876472
 21 H s       :     0.874413  s :     0.874413
 22 H s       :     0.876050  s :     0.876050


                      *****************************
                      * MAYER POPULATION ANALYSIS *
                      *****************************

  NA   - Mulliken gross atomic population
  ZA   - Total nuclear charge
  QA   - Mulliken gross atomic charge
  VA   - Mayer's total valence
  BVA  - Mayer's bonded valence
  FA   - Mayer's free valence

  ATOM       NA         ZA         QA         VA         BVA        FA
  0 C      6.6560     6.0000    -0.6560     3.7439     3.7439    -0.0000
  1 C      6.3941     6.0000    -0.3941     3.6968     3.6968    -0.0000
  2 C      6.0851     6.0000    -0.0851     3.7867     3.7867    -0.0000
  3 C      6.3941     6.0000    -0.3941     3.6968     3.6968     0.0000
  4 C      6.6560     6.0000    -0.6560     3.7439     3.7439    -0.0000
  5 C      6.6189     6.0000    -0.6189     3.6935     3.6935    -0.0000
  6 C      6.6189     6.0000    -0.6189     3.6935     3.6935     0.0000
  7 H      0.7856     1.0000     0.2144     0.9140     0.9140     0.0000
  8 H      0.7773     1.0000     0.2227     0.9115     0.9115    -0.0000
  9 H      0.7864     1.0000     0.2136     0.9137     0.9137    -0.0000
 10 H      0.7904     1.0000     0.2096     0.9118     0.9118    -0.0000
 11 H      0.7882     1.0000     0.2118     0.9105     0.9105    -0.0000
 12 H      0.7904     1.0000     0.2096     0.9118     0.9118    -0.0000
 13 H      0.7882     1.0000     0.2118     0.9105     0.9105    -0.0000
 14 H      0.7856     1.0000     0.2144     0.9140     0.9140    -0.0000
 15 H      0.7773     1.0000     0.2227     0.9115     0.9115    -0.0000
 16 H      0.7864     1.0000     0.2136     0.9137     0.9137    -0.0000
 17 H      0.7858     1.0000     0.2142     0.9189     0.9189    -0.0000
 18 H      0.7860     1.0000     0.2140     0.9178     0.9178    -0.0000
 19 H      0.7887     1.0000     0.2113     0.9198     0.9198    -0.0000
 20 H      0.7858     1.0000     0.2142     0.9189     0.9189    -0.0000
 21 H      0.7860     1.0000     0.2140     0.9178     0.9178    -0.0000
 22 H      0.7887     1.0000     0.2113     0.9198     0.9198    -0.0000

  Mayer bond orders larger than 0.100000
B(  0-C ,  1-C ) :   0.9950 B(  0-C ,  7-H ) :   0.9254 B(  0-C ,  8-H ) :   0.9297 
B(  0-C ,  9-H ) :   0.9241 B(  1-C ,  2-C ) :   0.9647 B(  1-C , 10-H ) :   0.9201 
B(  1-C , 11-H ) :   0.9194 B(  2-C ,  3-C ) :   0.9647 B(  2-C ,  5-C ) :   0.9855 
B(  2-C ,  6-C ) :   0.9855 B(  3-C ,  4-C ) :   0.9950 B(  3-C , 12-H ) :   0.9201 
B(  3-C , 13-H ) :   0.9194 B(  4-C , 14-H ) :   0.9254 B(  4-C , 15-H ) :   0.9297 
B(  4-C , 16-H ) :   0.9241 B(  5-C , 17-H ) :   0.9265 B(  5-C , 18-H ) :   0.9282 
B(  5-C , 19-H ) :   0.9298 B(  6-C , 20-H ) :   0.9265 B(  6-C , 21-H ) :   0.9282 
B(  6-C , 22-H ) :   0.9298 

-------
TIMINGS
-------

Total SCF time: 0 days 0 hours 1 min 39 sec 

Total time                  ....      99.580 sec
Sum of individual times     ....      93.746 sec  ( 94.1%)

Fock matrix formation       ....      76.520 sec  ( 76.8%)
  Split-RI-J                ....       7.921 sec  ( 10.4% of F)
  Chain of spheres X        ....      42.274 sec  ( 55.2% of F)
  XC integration            ....      17.125 sec  ( 22.4% of F)
    Basis function eval.    ....       3.902 sec  ( 22.8% of XC)
    Density eval.           ....       2.204 sec  ( 12.9% of XC)
    XC-Functional eval.     ....       1.466 sec  (  8.6% of XC)
    XC-Potential eval.      ....       1.386 sec  (  8.1% of XC)
Diagonalization             ....       0.155 sec  (  0.2%)
Density matrix formation    ....       0.205 sec  (  0.2%)
Population analysis         ....       0.428 sec  (  0.4%)
Initial guess               ....       0.155 sec  (  0.2%)
Orbital Transformation      ....       0.000 sec  (  0.0%)
Orbital Orthonormalization  ....       0.000 sec  (  0.0%)
DIIS solution               ....       0.402 sec  (  0.4%)
SOSCF solution              ....       2.330 sec  (  2.3%)
Grid generation             ....      13.551 sec  ( 13.6%)

Maximum memory used throughout the entire SCF-calculation: 58.7 MB


-------------------------------------------------------------------------------
                          DFT DISPERSION CORRECTION                            
                                                                               
                              DFTD3 V3.1  Rev 1                                
                          USING Becke-Johnson damping                          
-------------------------------------------------------------------------------
The PBEh-3c composite method is recognized
Using three-body term ABC
Active option DFTDOPT                   ...         4   

molecular C6(AA) [au] = 3356.814091 


            DFT-D V3
 parameters
 s6 scaling factor         :     1.0000 
 a1 scaling factor         :     0.4860 
 s8 scaling factor         :     0.0000 
 a2 scaling factor         :     4.5000 
 Damping factor alpha9(ATM):    16.0000 
 ad hoc parameters k1-k3   :    16.0000     1.3333    -4.0000 

 Edisp/kcal,au: -7.756873056838  -0.012361362736 
 E6   /kcal   :  -7.851713311 
 E8   /kcal   :  -0.000000000 
 E6(ABC)      :   0.094840254 
 % E8         :   0.000000000 
 % E6(ABC)    :  -1.222660901 

-------------------------   ----------------
Dispersion correction           -0.012361363
-------------------------   ----------------

------------------   -----------------
gCP correction             0.030659362
------------------   -----------------

-------------------------   --------------------
FINAL SINGLE POINT ENERGY      -275.793250533510
-------------------------   --------------------


                            ***************************************
                            *     ORCA property calculations      *
                            ***************************************

                                    ---------------------
                                    Active property flags
                                    ---------------------
   (+) Dipole Moment


------------------------------------------------------------------------------
                       ORCA ELECTRIC PROPERTIES CALCULATION
------------------------------------------------------------------------------

Dipole Moment Calculation                       ... on
Quadrupole Moment Calculation                   ... off
Polarizability Calculation                      ... off
GBWName                                         ... pbeh-3c.gbw
Electron density                                ... pbeh-3c.scfp
The origin for moment calculation is the CENTER OF MASS  = (-0.000000, -0.000000  0.049527)

-------------
DIPOLE MOMENT
-------------
                                X             Y             Z
Electronic contribution:      0.00000      -0.00000       0.61016
Nuclear contribution   :     -0.00000      -0.00000      -0.61734
                        -----------------------------------------
Total Dipole Moment    :      0.00000      -0.00000      -0.00718
                        -----------------------------------------
Magnitude (a.u.)       :      0.00718
Magnitude (Debye)      :      0.01826



--------------------
Rotational spectrum 
--------------------
 
Rotational constants in cm-1:     0.085742     0.078472     0.058117 
Rotational constants in MHz :  2570.477676  2352.529355  1742.309714 

 Dipole components along the rotational axes: 
x,y,z [a.u.] :     0.000000    -0.007182    -0.000000 
x,y,z [Debye]:     0.000000    -0.018256    -0.000000 

 

Timings for individual modules:

Sum of individual times         ...      101.549 sec (=   1.692 min)
GTO integral calculation        ...        1.641 sec (=   0.027 min)   1.6 %
SCF iterations                  ...       99.908 sec (=   1.665 min)  98.4 %
                             ****ORCA TERMINATED NORMALLY****
TOTAL RUN TIME: 0 days 0 hours 1 minutes 43 seconds 879 msec
