
                                 *****************
                                 * O   R   C   A *
                                 *****************

                                            #,                                       
                                            ###                                      
                                            ####                                     
                                            #####                                    
                                            ######                                   
                                           ########,                                 
                                     ,,################,,,,,                         
                               ,,#################################,,                 
                          ,,##########################################,,             
                       ,#########################################, ''#####,          
                    ,#############################################,,   '####,        
                  ,##################################################,,,,####,       
                ,###########''''           ''''###############################       
              ,#####''   ,,,,##########,,,,          '''####'''          '####       
            ,##' ,,,,###########################,,,                        '##       
           ' ,,###''''                  '''############,,,                           
         ,,##''                                '''############,,,,        ,,,,,,###''
      ,#''                                            '''#######################'''  
     '                                                          ''''####''''         
             ,#######,   #######,   ,#######,      ##                                
            ,#'     '#,  ##    ##  ,#'     '#,    #''#        ######   ,####,        
            ##       ##  ##   ,#'  ##            #'  '#       #        #'  '#        
            ##       ##  #######   ##           ,######,      #####,   #    #        
            '#,     ,#'  ##    ##  '#,     ,#' ,#      #,         ##   #,  ,#        
             '#######'   ##     ##  '#######'  #'      '#     #####' # '####'        



                  #######################################################
                  #                        -***-                        #
                  #          Department of theory and spectroscopy      #
                  #    Directorship and core code : Frank Neese         #
                  #        Max Planck Institute fuer Kohlenforschung    #
                  #                Kaiser Wilhelm Platz 1               #
                  #                 D-45470 Muelheim/Ruhr               #
                  #                      Germany                        #
                  #                                                     #
                  #                  All rights reserved                #
                  #                        -***-                        #
                  #######################################################


                         Program Version 5.0.3 -  RELEASE  -


 With contributions from (in alphabetic order):
   Daniel Aravena         : Magnetic Suceptibility
   Michael Atanasov       : Ab Initio Ligand Field Theory (pilot matlab implementation)
   Alexander A. Auer      : GIAO ZORA, VPT2 properties, NMR spectrum
   Ute Becker             : Parallelization
   Giovanni Bistoni       : ED, misc. LED, open-shell LED, HFLD
   Martin Brehm           : Molecular dynamics
   Dmytro Bykov           : SCF Hessian
   Vijay G. Chilkuri      : MRCI spin determinant printing, contributions to CSF-ICE
   Dipayan Datta          : RHF DLPNO-CCSD density
   Achintya Kumar Dutta   : EOM-CC, STEOM-CC
   Dmitry Ganyushin       : Spin-Orbit,Spin-Spin,Magnetic field MRCI
   Miquel Garcia          : C-PCM and meta-GGA Hessian, CC/C-PCM, Gaussian charge scheme
   Yang Guo               : DLPNO-NEVPT2, F12-NEVPT2, CIM, IAO-localization
   Andreas Hansen         : Spin unrestricted coupled pair/coupled cluster methods
   Benjamin Helmich-Paris : MC-RPA, TRAH-SCF, COSX integrals
   Lee Huntington         : MR-EOM, pCC
   Robert Izsak           : Overlap fitted RIJCOSX, COSX-SCS-MP3, EOM
   Marcus Kettner         : VPT2
   Christian Kollmar      : KDIIS, OOCD, Brueckner-CCSD(T), CCSD density, CASPT2, CASPT2-K
   Simone Kossmann        : Meta GGA functionals, TD-DFT gradient, OOMP2, MP2 Hessian
   Martin Krupicka        : Initial AUTO-CI
   Lucas Lang             : DCDCAS
   Marvin Lechner         : AUTO-CI (C++ implementation), FIC-MRCC
   Dagmar Lenk            : GEPOL surface, SMD
   Dimitrios Liakos       : Extrapolation schemes; Compound Job, initial MDCI parallelization
   Dimitrios Manganas     : Further ROCIS development; embedding schemes
   Dimitrios Pantazis     : SARC Basis sets
   Anastasios Papadopoulos: AUTO-CI, single reference methods and gradients
   Taras Petrenko         : DFT Hessian,TD-DFT gradient, ASA, ECA, R-Raman, ABS, FL, XAS/XES, NRVS
   Peter Pinski           : DLPNO-MP2, DLPNO-MP2 Gradient
   Christoph Reimann      : Effective Core Potentials
   Marius Retegan         : Local ZFS, SOC
   Christoph Riplinger    : Optimizer, TS searches, QM/MM, DLPNO-CCSD(T), (RO)-DLPNO pert. Triples
   Tobias Risthaus        : Range-separated hybrids, TD-DFT gradient, RPA, STAB
   Michael Roemelt        : Original ROCIS implementation
   Masaaki Saitow         : Open-shell DLPNO-CCSD energy and density
   Barbara Sandhoefer     : DKH picture change effects
   Avijit Sen             : IP-ROCIS
   Kantharuban Sivalingam : CASSCF convergence, NEVPT2, FIC-MRCI
   Bernardo de Souza      : ESD, SOC TD-DFT
   Georgi Stoychev        : AutoAux, RI-MP2 NMR, DLPNO-MP2 response
   Willem Van den Heuvel  : Paramagnetic NMR
   Boris Wezisla          : Elementary symmetry handling
   Frank Wennmohs         : Technical directorship


 We gratefully acknowledge several colleagues who have allowed us to
 interface, adapt or use parts of their codes:
   Stefan Grimme, W. Hujo, H. Kruse, P. Pracht,  : VdW corrections, initial TS optimization,
                  C. Bannwarth, S. Ehlert          DFT functionals, gCP, sTDA/sTD-DF
   Ed Valeev, F. Pavosevic, A. Kumar             : LibInt (2-el integral package), F12 methods
   Garnet Chan, S. Sharma, J. Yang, R. Olivares  : DMRG
   Ulf Ekstrom                                   : XCFun DFT Library
   Mihaly Kallay                                 : mrcc  (arbitrary order and MRCC methods)
   Jiri Pittner, Ondrej Demel                    : Mk-CCSD
   Frank Weinhold                                : gennbo (NPA and NBO analysis)
   Christopher J. Cramer and Donald G. Truhlar   : smd solvation model
   Lars Goerigk                                  : TD-DFT with DH, B97 family of functionals
   V. Asgeirsson, H. Jonsson                     : NEB implementation
   FAccTs GmbH                                   : IRC, NEB, NEB-TS, DLPNO-Multilevel, CI-OPT
                                                   MM, QMMM, 2- and 3-layer-ONIOM, Crystal-QMMM,
                                                   LR-CPCM, SF, NACMEs, symmetry and pop. for TD-DFT,
                                                   nearIR, NL-DFT gradient (VV10), updates on ESD,
                                                   ML-optimized integration grids
   S Lehtola, MJT Oliveira, MAL Marques          : LibXC Library
   Liviu Ungur et al                             : ANISO software


 Your calculation uses the libint2 library for the computation of 2-el integrals
 For citations please refer to: http://libint.valeyev.net

 Your ORCA version has been built with support for libXC version: 5.1.0
 For citations please refer to: https://tddft.org/programs/libxc/

 This ORCA versions uses:
   CBLAS   interface :  Fast vector & matrix operations
   LAPACKE interface :  Fast linear algebra routines
   SCALAPACK package :  Parallel linear algebra routines
   Shared memory     :  Shared parallel matrices
   BLAS/LAPACK       :  OpenBLAS 0.3.15  USE64BITINT DYNAMIC_ARCH NO_AFFINITY Haswell SINGLE_THREADED
        Core in use  :  Haswell
   Copyright (c) 2011-2014, The OpenBLAS Project




***************************************
The coordinates will be read from file: T.xyz
***************************************


Your calculation utilizes the geometrical counterpoise correction gCP
Please cite in your paper:
H.Kruse, S. Grimme J.Chem.Phys., 136, (2012), 154101 
   

Your calculation utilizes the atom-pairwise dispersion correction
with the Becke-Johnson damping scheme (D3BJ)
Cite in your paper:
S.Grimme, S.Ehrlich, L.Goerigk, J Comput Chem, (2011), 32, 1456–1465 
S.Grimme, J.Antony, S.Ehrlich and H.Krieg, J.Chem.Phys., 132, (2010), 154104 
   

Your calculation employs the composite approach PBEh-3c.
Please cite in your paper:
S. Grimme, J. G. Brandenburg, C. Bannwarth, A. Hansen J.Chem.Phys., 143, (2015), 054107 
   

================================================================================

----- Orbital basis set information -----
Your calculation utilizes the basis: def2-mSVP

----- AuxJ basis set information -----
Your calculation utilizes the auxiliary basis: def2/J
   F. Weigend, Phys. Chem. Chem. Phys. 8, 1057 (2006).

================================================================================
                                        WARNINGS
                       Please study these warnings very carefully!
================================================================================


INFO   : the flag for use of the SHARK integral package has been found!

================================================================================
                                       INPUT FILE
================================================================================
NAME = pbeh-3c.inp
|  1> ! PBEh-3c def2/J TightSCF DefGrid3
|  2> 
|  3> %maxcore 60000
|  4> 
|  5> %pal
|  6> nprocs 4
|  7> end
|  8> 
|  9> *xyzfile 0 1 T.xyz
| 10> 
| 11>                          ****END OF INPUT****
================================================================================

                       ****************************
                       * Single Point Calculation *
                       ****************************

---------------------------------
CARTESIAN COORDINATES (ANGSTROEM)
---------------------------------
  N     -0.331092    1.757157    0.000000
  N      1.652626    0.616145    0.000000
  C     -0.397052   -0.620224    0.000000
  C      1.054047   -0.632277    0.000000
  C     -1.012074    0.575496    0.000000
  C      1.030202    1.837849    0.000000
  C     -1.130733   -1.920759    0.000000
  O      1.738481   -1.638362    0.000000
  O      1.638334    2.888589    0.000000
  H     -0.844956    2.626657    0.000000
  H      2.666289    0.635506    0.000000
  H     -2.090002    0.670791    0.000000
  H     -0.882915   -2.519178   -0.878556
  H     -0.882915   -2.519178    0.878556
  H     -2.208239   -1.758212    0.000000

----------------------------
CARTESIAN COORDINATES (A.U.)
----------------------------
  NO LB      ZA    FRAG     MASS         X           Y           Z
   0 N     7.0000    0    14.007   -0.625674    3.320546    0.000000
   1 N     7.0000    0    14.007    3.123011    1.164346    0.000000
   2 C     6.0000    0    12.011   -0.750320   -1.172054    0.000000
   3 C     6.0000    0    12.011    1.991859   -1.194830    0.000000
   4 C     6.0000    0    12.011   -1.912543    1.087530    0.000000
   5 C     6.0000    0    12.011    1.946799    3.473032    0.000000
   6 C     6.0000    0    12.011   -2.136776   -3.629708    0.000000
   7 O     8.0000    0    15.999    3.285254   -3.096056    0.000000
   8 O     8.0000    0    15.999    3.096003    5.458643    0.000000
   9 H     1.0000    0     1.008   -1.596736    4.963662    0.000000
  10 H     1.0000    0     1.008    5.038556    1.200933    0.000000
  11 H     1.0000    0     1.008   -3.949532    1.267611    0.000000
  12 H     1.0000    0     1.008   -1.668468   -4.760557   -1.660231
  13 H     1.0000    0     1.008   -1.668468   -4.760557    1.660231
  14 H     1.0000    0     1.008   -4.172966   -3.322540    0.000000

--------------------------------
INTERNAL COORDINATES (ANGSTROEM)
--------------------------------
 N      0   0   0     0.000000000000     0.00000000     0.00000000
 N      1   0   0     2.288459788856     0.00000000     0.00000000
 C      1   2   0     2.378296036860    61.68223514     0.00000000
 C      2   1   3     1.384505380031    94.29073260     0.00000000
 C      3   1   2     1.344618617373    28.80840477   180.00000000
 C      1   2   3     1.363683861682    33.29930827   180.00000000
 C      3   1   2     1.493210468078   152.16025124   180.00000000
 O      4   2   1     1.216823500429   120.15647645   180.00000000
 O      6   1   2     1.214034438946   123.45307462   180.00000085
 H      1   2   3     1.009993007652   150.48956623   180.00000000
 H      2   1   3     1.013847384951   148.99876146   180.00000000
 H      5   3   1     1.082131995879   122.27129138   180.00000000
 H      7   3   1     1.091503772973   111.46621441   120.12877558
 H      7   3   1     1.091503772973   111.46621441   239.87122442
 H      7   3   1     1.089697129103   110.85036544     0.00000000

---------------------------
INTERNAL COORDINATES (A.U.)
---------------------------
 N      0   0   0     0.000000000000     0.00000000     0.00000000
 N      1   0   0     4.324562269430     0.00000000     0.00000000
 C      1   2   0     4.494328175056    61.68223514     0.00000000
 C      2   1   3     2.616335999200    94.29073260     0.00000000
 C      3   1   2     2.540960941406    28.80840477   180.00000000
 C      1   2   3     2.576989031827    33.29930827   180.00000000
 C      3   1   2     2.821758844973   152.16025124   180.00000000
 O      4   2   1     2.299463169130   120.15647645   180.00000000
 O      6   1   2     2.294192606756   123.45307462   180.00000085
 H      1   2   3     1.908610181637   150.48956623   180.00000000
 H      2   1   3     1.915893899149   148.99876146   180.00000000
 H      5   3   1     2.044933112965   122.27129138   180.00000000
 H      7   3   1     2.062643205062   111.46621441   120.12877558
 H      7   3   1     2.062643205062   111.46621441   239.87122442
 H      7   3   1     2.059229142926   110.85036544     0.00000000

---------------------
BASIS SET INFORMATION
---------------------
There are 4 groups of distinct atoms

 Group   1 Type N   : 8s4p1d contracted to 4s2p1d pattern {5111/31/1}
 Group   2 Type C   : 8s4p1d contracted to 4s2p1d pattern {5111/31/1}
 Group   3 Type O   : 8s4p1d contracted to 4s2p1d pattern {5111/31/1}
 Group   4 Type H   : 4s contracted to 2s pattern {31}

Atom   0N    basis set group =>   1
Atom   1N    basis set group =>   1
Atom   2C    basis set group =>   2
Atom   3C    basis set group =>   2
Atom   4C    basis set group =>   2
Atom   5C    basis set group =>   2
Atom   6C    basis set group =>   2
Atom   7O    basis set group =>   3
Atom   8O    basis set group =>   3
Atom   9H    basis set group =>   4
Atom  10H    basis set group =>   4
Atom  11H    basis set group =>   4
Atom  12H    basis set group =>   4
Atom  13H    basis set group =>   4
Atom  14H    basis set group =>   4
---------------------------------
AUXILIARY/J BASIS SET INFORMATION
---------------------------------
There are 4 groups of distinct atoms

 Group   1 Type N   : 12s5p4d2f1g contracted to 6s4p3d1f1g pattern {711111/2111/211/2/1}
 Group   2 Type C   : 12s5p4d2f1g contracted to 6s4p3d1f1g pattern {711111/2111/211/2/1}
 Group   3 Type O   : 12s5p4d2f1g contracted to 6s4p3d1f1g pattern {711111/2111/211/2/1}
 Group   4 Type H   : 5s2p1d contracted to 3s1p1d pattern {311/2/1}

Atom   0N    basis set group =>   1
Atom   1N    basis set group =>   1
Atom   2C    basis set group =>   2
Atom   3C    basis set group =>   2
Atom   4C    basis set group =>   2
Atom   5C    basis set group =>   2
Atom   6C    basis set group =>   2
Atom   7O    basis set group =>   3
Atom   8O    basis set group =>   3
Atom   9H    basis set group =>   4
Atom  10H    basis set group =>   4
Atom  11H    basis set group =>   4
Atom  12H    basis set group =>   4
Atom  13H    basis set group =>   4
Atom  14H    basis set group =>   4


           ************************************************************
           *        Program running with 4 parallel MPI-processes     *
           *              working on a common directory               *
           ************************************************************
------------------------------------------------------------------------------
                           ORCA GTO INTEGRAL CALCULATION
                           -- RI-GTO INTEGRALS CHOSEN --
------------------------------------------------------------------------------
------------------------------------------------------------------------------
                   ___                                                        
                  /   \      - P O W E R E D   B Y -                         
                 /     \                                                     
                 |  |  |   _    _      __       _____    __    __             
                 |  |  |  | |  | |    /  \     |  _  \  |  |  /  |          
                  \  \/   | |  | |   /    \    | | | |  |  | /  /          
                 / \  \   | |__| |  /  /\  \   | |_| |  |  |/  /          
                |  |  |   |  __  | /  /__\  \  |    /   |      \           
                |  |  |   | |  | | |   __   |  |    \   |  |\   \          
                \     /   | |  | | |  |  |  |  | |\  \  |  | \   \       
                 \___/    |_|  |_| |__|  |__|  |_| \__\ |__|  \__/        
                                                                              
                      - O R C A' S   B I G   F R I E N D -                    
                                      &                                       
                       - I N T E G R A L  F E E D E R -                       
                                                                              
 v1 FN, 2020, v2 2021                                                         
------------------------------------------------------------------------------


Reading SHARK input file pbeh-3c.SHARKINP.tmp ... ok
----------------------
SHARK INTEGRAL PACKAGE
----------------------

Number of atoms                             ...     15
Number of basis functions                   ...    147
Number of shells                            ...     75
Maximum angular momentum                    ...      2
Integral batch strategy                     ... SHARK/LIBINT Hybrid
RI-J (if used) integral strategy            ... SPLIT-RIJ (Revised 2003 algorithm where possible)
Printlevel                                  ...      1
Contraction scheme used                     ... SEGMENTED contraction
Coulomb Range Separation                    ... NOT USED
Exchange Range Separation                   ... NOT USED
Finite Nucleus Model                        ... NOT USED
Auxiliary Coulomb fitting basis             ... AVAILABLE
   # of basis functions in Aux-J            ...    507
   # of shells in Aux-J                     ...    165
   Maximum angular momentum in Aux-J        ...      4
Auxiliary J/K fitting basis                 ... NOT available
Auxiliary Correlation fitting basis         ... NOT available
Auxiliary 'external' fitting basis          ... NOT available
Integral threshold                          ...     2.500000e-11
Primitive cut-off                           ...     2.500000e-12
Primitive pair pre-selection threshold      ...     2.500000e-12

Calculating pre-screening integrals         ... done (  0.0 sec) Dimension = 75
Organizing shell pair data                  ... done (  0.2 sec)
Shell pair information
Total number of shell pairs                 ...      2850
Shell pairs after pre-screening             ...      2535
Total number of primitive shell pairs       ...     10146
Primitive shell pairs kept                  ...      6418
          la=0 lb=0:    962 shell pairs
          la=1 lb=0:    820 shell pairs
          la=1 lb=1:    169 shell pairs
          la=2 lb=0:    382 shell pairs
          la=2 lb=1:    158 shell pairs
          la=2 lb=2:     44 shell pairs

Calculating one electron integrals          ... done (  0.0 sec)
Calculating RI/J V-Matrix + Cholesky decomp.... done (  0.3 sec)
Calculating Nuclear repulsion               ... done (  0.0 sec) ENN=    442.266656346880 Eh

SHARK setup successfully completed in   1.6 seconds

Maximum memory used throughout the entire GTOINT-calculation: 11.2 MB


           ************************************************************
           *        Program running with 4 parallel MPI-processes     *
           *              working on a common directory               *
           ************************************************************
-------------------------------------------------------------------------------
                                 ORCA SCF
-------------------------------------------------------------------------------

------------
SCF SETTINGS
------------
Hamiltonian:
 Density Functional     Method          .... DFT(GTOs)
 Exchange Functional    Exchange        .... PBE
   PBE kappa parameter   XKappa         ....  1.024500
   PBE mue parameter    XMuePBE         ....  0.123457
 Correlation Functional Correlation     .... PBE
   PBE beta parameter  CBetaPBE         ....  0.030000
 LDA part of GGA corr.  LDAOpt          .... PW91-LDA
 Gradients option       PostSCFGGA      .... off
 Hybrid DFT is turned on
   Fraction HF Exchange ScalHFX         ....  0.420000
   Scaling of DF-GGA-X  ScalDFX         ....  0.580000
   Scaling of DF-GGA-C  ScalDFC         ....  1.000000
   Scaling of DF-LDA-C  ScalLDAC        ....  1.000000
   Perturbative correction              ....  0.000000
   Density functional embedding theory  .... OFF
 RI-approximation to the Coulomb term is turned on
   Number of AuxJ basis functions       .... 507
   RIJ-ON(X) (HFX calculated with O(N)) .... on
   Number of AuxJ basis functions       .... 507
   RIJ-COSX (HFX calculated with COS-X)).... on


General Settings:
 Integral files         IntName         .... pbeh-3c
 Hartree-Fock type      HFTyp           .... RHF
 Total Charge           Charge          ....    0
 Multiplicity           Mult            ....    1
 Number of Electrons    NEL             ....   66
 Basis Dimension        Dim             ....  147
 Nuclear Repulsion      ENuc            ....    442.2666563469 Eh

Convergence Acceleration:
 DIIS                   CNVDIIS         .... on
   Start iteration      DIISMaxIt       ....    12
   Startup error        DIISStart       ....  0.200000
   # of expansion vecs  DIISMaxEq       ....     5
   Bias factor          DIISBfac        ....   1.050
   Max. coefficient     DIISMaxC        ....  10.000
 Trust-Rad. Augm. Hess. CNVTRAH         .... auto
   Auto Start mean grad. ratio tolernc. ....  1.125000
   Auto Start start iteration           ....    20
   Auto Start num. interpolation iter.  ....    10
   Max. Number of Micro iterations      ....    16
   Max. Number of Macro iterations      .... Maxiter - #DIIS iter
   Number of Davidson start vectors     ....     2
   Converg. threshold I  (grad. norm)   ....   1.000e-05
   Converg. threshold II (energy diff.) ....   1.000e-08
   Grad. Scal. Fac. for Micro threshold ....   0.100
   Minimum threshold for Micro iter.    ....   0.010
   NR start threshold (gradient norm)   ....   0.001
   Initial trust radius                 ....   0.400
   Minimum AH scaling param. (alpha)    ....   1.000
   Maximum AH scaling param. (alpha)    .... 1000.000
   Orbital update algorithm             .... Taylor
   White noise on init. David. guess    .... on
   Maximum white noise                  ....   0.010
   Quad. conv. algorithm                .... NR
   COSX micro iterations for RIJONX calc.... off
 SOSCF                  CNVSOSCF        .... on
   Start iteration      SOSCFMaxIt      ....   150
   Startup grad/error   SOSCFStart      ....  0.003300
 Level Shifting         CNVShift        .... on
   Level shift para.    LevelShift      ....    0.2500
   Turn off err/grad.   ShiftErr        ....    0.0010
 Zerner damping         CNVZerner       .... off
 Static damping         CNVDamp         .... on
   Fraction old density DampFac         ....    0.7000
   Max. Damping (<1)    DampMax         ....    0.9800
   Min. Damping (>=0)   DampMin         ....    0.0000
   Turn off err/grad.   DampErr         ....    0.1000
 Fernandez-Rico         CNVRico         .... off

SCF Procedure:
 Maximum # iterations   MaxIter         ....   125
 SCF integral mode      SCFMode         .... Direct
   Integral package                     .... SHARK and LIBINT hybrid scheme
 Reset frequency        DirectResetFreq ....    20
 Integral Threshold     Thresh          ....  2.500e-11 Eh
 Primitive CutOff       TCut            ....  2.500e-12 Eh

Convergence Tolerance:
 Convergence Check Mode ConvCheckMode   .... Total+1el-Energy
 Convergence forced     ConvForced      .... 0
 Energy Change          TolE            ....  1.000e-08 Eh
 1-El. energy change                    ....  1.000e-05 Eh
 Orbital Gradient       TolG            ....  1.000e-05
 Orbital Rotation angle TolX            ....  1.000e-05
 DIIS Error             TolErr          ....  5.000e-07


Diagonalization of the overlap matrix:
Smallest eigenvalue                        ... 1.628e-03
Time for diagonalization                   ...    0.004 sec
Threshold for overlap eigenvalues          ... 1.000e-08
Number of eigenvalues below threshold      ... 0
Time for construction of square roots      ...    0.291 sec
Total time needed                          ...    0.312 sec

--------------------------------
INITIAL GUESS: MINIMAL BASIS EHT
--------------------------------
The minimal basis has 51 functions
EHT matrix was diagonalized
Basis set overlap was calculated now projecting the orbitals
Using GuessMode=FMatrix for the initial guess
C*T matrix was formed
Effective Fockian was calculated
Effective Fockian was diagonalized
Initial density was built
                      ------------------
                      INITIAL GUESS DONE
                      ------------------
-------------------
DFT GRID GENERATION
-------------------

General Integration Accuracy     IntAcc      ... 4.959
Radial Grid Type                 RadialGrid  ... OptM3 with GC (2021)
Angular Grid (max. ang.)         AngularGrid ... 6 (Lebedev-590)
Angular grid pruning method      GridPruning ... 4 (adaptive)
Weight generation scheme         WeightScheme... Becke
Basis function cutoff            BFCut       ... 1.0000e-11
Integration weight cutoff        WCut        ... 1.0000e-14
Angular grids for H and He will be reduced by one unit
Partially contracted basis set               ... off
Rotationally invariant grid construction     ... off

Total number of grid points                  ...   181072
Total number of batches                      ...     2839
Average number of points per batch           ...       63
Average number of grid points per atom       ...    12071
Time for grid setup =    3.412 sec

--------------------
COSX GRID GENERATION
--------------------

GRIDX 1
-------
General Integration Accuracy     IntAcc      ... 4.020
Radial Grid Type                 RadialGrid  ... OptM3 with GC (2021)
Angular Grid (max. ang.)         AngularGrid ... 2 (Lebedev-110)
Angular grid pruning method      GridPruning ... 4 (adaptive)
Weight generation scheme         WeightScheme... Becke
Basis function cutoff            BFCut       ... 1.0000e-11
Integration weight cutoff        WCut        ... 1.0000e-14
Angular grids for H and He will be reduced by one unit
Partially contracted basis set               ... on
Rotationally invariant grid construction     ... off

Total number of grid points                  ...    20829
Total number of batches                      ...      332
Average number of points per batch           ...       62
Average number of grid points per atom       ...     1389
UseSFitting                                  ... on

GRIDX 2
-------
General Integration Accuracy     IntAcc      ... 4.338
Radial Grid Type                 RadialGrid  ... OptM3 with GC (2021)
Angular Grid (max. ang.)         AngularGrid ... 3 (Lebedev-194)
Angular grid pruning method      GridPruning ... 4 (adaptive)
Weight generation scheme         WeightScheme... Becke
Basis function cutoff            BFCut       ... 1.0000e-11
Integration weight cutoff        WCut        ... 1.0000e-14
Angular grids for H and He will be reduced by one unit
Partially contracted basis set               ... on
Rotationally invariant grid construction     ... off

Total number of grid points                  ...    45891
Total number of batches                      ...      725
Average number of points per batch           ...       63
Average number of grid points per atom       ...     3059
UseSFitting                                  ... on

GRIDX 3
-------
General Integration Accuracy     IntAcc      ... 4.871
Radial Grid Type                 RadialGrid  ... OptM3 with GC (2021)
Angular Grid (max. ang.)         AngularGrid ... 4 (Lebedev-302)
Angular grid pruning method      GridPruning ... 4 (adaptive)
Weight generation scheme         WeightScheme... Becke
Basis function cutoff            BFCut       ... 1.0000e-11
Integration weight cutoff        WCut        ... 1.0000e-14
Angular grids for H and He will be reduced by one unit
Partially contracted basis set               ... on
Rotationally invariant grid construction     ... off

Total number of grid points                  ...    85849
Total number of batches                      ...     1349
Average number of points per batch           ...       63
Average number of grid points per atom       ...     5723
UseSFitting                                  ... on

Time for X-Grid setup             =    4.407 sec

--------------
SCF ITERATIONS
--------------
ITER       Energy         Delta-E        Max-DP      RMS-DP      [F,P]     Damp
               ***  Starting incremental Fock matrix formation  ***
  0   -451.4795275654   0.000000000000 0.24336812  0.00903917  0.5864878 0.7000
  1   -452.1432548169  -0.663727251472 0.14420315  0.00457995  0.2992163 0.7000
  2   -452.4417639125  -0.298509095558 0.08538924  0.00275028  0.2105944 0.7000
                               ***Turning on DIIS***
  3   -452.6600184723  -0.218254559846 0.08360431  0.00205802  0.1474990 0.7000
  4   -452.8187768249  -0.158758352546 0.05841002  0.00147656  0.1030832 0.7000
  5   -452.9303904020  -0.111613577164 0.13196576  0.00351169  0.0721152 0.0000
  6   -453.1948103743  -0.264419972263 0.00789396  0.00017887  0.0057364 0.0000
                      *** Initiating the SOSCF procedure ***
                           *** Shutting down DIIS ***
                      *** Re-Reading the Fockian *** 
                      *** Removing any level shift *** 
ITER      Energy       Delta-E        Grad      Rot      Max-DP    RMS-DP
  7   -453.19498798  -0.0001776037  0.001060  0.001060  0.002252  0.000089
               *** Restarting incremental Fock matrix formation ***
  8   -453.19505100  -0.0000630180  0.000958  0.002966  0.002037  0.000073
  9   -453.19506541  -0.0000144158  0.000373  0.001252  0.002504  0.000074
 10   -453.19506494   0.0000004700  0.000418  0.000444  0.001138  0.000034
 11   -453.19506810  -0.0000031560  0.000029  0.000090  0.000125  0.000004
 12   -453.19506811  -0.0000000081  0.000025  0.000041  0.000064  0.000002
                  ***Gradient check signals convergence***
              ***Rediagonalizing the Fockian in SOSCF/NRSCF***

               *****************************************************
               *                     SUCCESS                       *
               *           SCF CONVERGED AFTER  13 CYCLES          *
               *****************************************************

Old exchange energy                            =    -24.283481538 Eh
New exchange energy                            =    -24.283471343 Eh
Exchange energy change after final integration =      0.000010194 Eh
Total energy after final integration           =   -453.195057941 Eh
Final COS-X integration done in                =     5.192 sec

----------------
TOTAL SCF ENERGY
----------------

Total Energy       :         -453.19505794 Eh          -12332.06448 eV

Components:
Nuclear Repulsion  :          442.26665635 Eh           12034.68755 eV
Electronic Energy  :         -895.46171429 Eh          -24366.75203 eV
One Electron Energy:        -1493.49040770 Eh          -40639.94009 eV
Two Electron Energy:          598.02869341 Eh           16273.18806 eV
Max COSX asymmetry :            0.00000159 Eh               0.00004 eV

Virial components:
Potential Energy   :         -903.23182237 Eh          -24578.18742 eV
Kinetic Energy     :          450.03676443 Eh           12246.12294 eV
Virial Ratio       :            2.00701786


DFT components:
N(Alpha)           :       32.999999763311 electrons
N(Beta)            :       32.999999763311 electrons
N(Total)           :       65.999999526621 electrons
E(X)               :      -32.326498906971 Eh       
E(C)               :       -2.943909180428 Eh       
E(XC)              :      -35.270408087399 Eh       
DFET-embed. en.    :        0.000000000000 Eh       

---------------
SCF CONVERGENCE
---------------

  Last Energy change         ...   -2.9919e-08  Tolerance :   1.0000e-08
  Last MAX-Density change    ...    1.4433e-15  Tolerance :   1.0000e-07
  Last RMS-Density change    ...    3.7476e-17  Tolerance :   5.0000e-09
  Last Orbital Gradient      ...    1.5281e-06  Tolerance :   1.0000e-05
  Last Orbital Rotation      ...    3.5595e-06  Tolerance :   1.0000e-05

             **** THE GBW FILE WAS UPDATED (pbeh-3c.gbw) ****
             **** DENSITY pbeh-3c.scfp WAS UPDATED ****
             **** ENERGY FILE WAS UPDATED (pbeh-3c.en.tmp) ****
             **** THE GBW FILE WAS UPDATED (pbeh-3c.gbw) ****
             **** DENSITY pbeh-3c.scfp WAS UPDATED ****
----------------
ORBITAL ENERGIES
----------------

  NO   OCC          E(Eh)            E(eV) 
   0   2.0000     -19.474721      -529.9341 
   1   2.0000     -19.473528      -529.9016 
   2   2.0000     -14.713298      -400.3692 
   3   2.0000     -14.695160      -399.8756 
   4   2.0000     -10.601978      -288.4945 
   5   2.0000     -10.566980      -287.5421 
   6   2.0000     -10.526899      -286.4515 
   7   2.0000     -10.472134      -284.9613 
   8   2.0000     -10.446649      -284.2678 
   9   2.0000      -1.197198       -32.5774 
  10   2.0000      -1.158400       -31.5217 
  11   2.0000      -1.092728       -29.7346 
  12   2.0000      -1.035641       -28.1812 
  13   2.0000      -0.918439       -24.9920 
  14   2.0000      -0.805824       -21.9276 
  15   2.0000      -0.767866       -20.8947 
  16   2.0000      -0.748072       -20.3561 
  17   2.0000      -0.647569       -17.6212 
  18   2.0000      -0.644173       -17.5288 
  19   2.0000      -0.592814       -16.1313 
  20   2.0000      -0.556283       -15.1372 
  21   2.0000      -0.541852       -14.7446 
  22   2.0000      -0.507201       -13.8016 
  23   2.0000      -0.492323       -13.3968 
  24   2.0000      -0.489559       -13.3216 
  25   2.0000      -0.467572       -12.7233 
  26   2.0000      -0.460465       -12.5299 
  27   2.0000      -0.447349       -12.1730 
  28   2.0000      -0.418033       -11.3753 
  29   2.0000      -0.355518        -9.6741 
  30   2.0000      -0.338209        -9.2031 
  31   2.0000      -0.325603        -8.8601 
  32   2.0000      -0.287640        -7.8271 
  33   0.0000      -0.015110        -0.4112 
  34   0.0000       0.045651         1.2422 
  35   0.0000       0.096925         2.6375 
  36   0.0000       0.147991         4.0270 
  37   0.0000       0.157926         4.2974 
  38   0.0000       0.158890         4.3236 
  39   0.0000       0.184777         5.0280 
  40   0.0000       0.200982         5.4690 
  41   0.0000       0.234012         6.3678 
  42   0.0000       0.240298         6.5389 
  43   0.0000       0.248048         6.7497 
  44   0.0000       0.271378         7.3846 
  45   0.0000       0.296653         8.0723 
  46   0.0000       0.335149         9.1199 
  47   0.0000       0.360749         9.8165 
  48   0.0000       0.376578        10.2472 
  49   0.0000       0.414378        11.2758 
  50   0.0000       0.451468        12.2851 
  51   0.0000       0.460840        12.5401 
  52   0.0000       0.511526        13.9193 
  53   0.0000       0.519422        14.1342 
  54   0.0000       0.528068        14.3695 
  55   0.0000       0.551558        15.0087 
  56   0.0000       0.556425        15.1411 
  57   0.0000       0.580042        15.7837 
  58   0.0000       0.608668        16.5627 
  59   0.0000       0.617934        16.8148 
  60   0.0000       0.672512        18.3000 
  61   0.0000       0.692429        18.8419 
  62   0.0000       0.704462        19.1694 
  63   0.0000       0.709691        19.3117 
  64   0.0000       0.753168        20.4947 
  65   0.0000       0.806839        21.9552 
  66   0.0000       0.828362        22.5409 
  67   0.0000       0.831872        22.6364 
  68   0.0000       0.902511        24.5586 
  69   0.0000       0.910204        24.7679 
  70   0.0000       0.932815        25.3832 
  71   0.0000       0.943574        25.6760 
  72   0.0000       0.992816        27.0159 
  73   0.0000       1.000579        27.2271 
  74   0.0000       1.019363        27.7383 
  75   0.0000       1.022439        27.8220 
  76   0.0000       1.061466        28.8840 
  77   0.0000       1.063035        28.9267 
  78   0.0000       1.095933        29.8219 
  79   0.0000       1.140254        31.0279 
  80   0.0000       1.142074        31.0774 
  81   0.0000       1.158582        31.5266 
  82   0.0000       1.181498        32.1502 
  83   0.0000       1.194974        32.5169 
  84   0.0000       1.234086        33.5812 
  85   0.0000       1.243956        33.8498 
  86   0.0000       1.292841        35.1800 
  87   0.0000       1.376512        37.4568 
  88   0.0000       1.387019        37.7427 
  89   0.0000       1.432872        38.9904 
  90   0.0000       1.444553        39.3083 
  91   0.0000       1.459096        39.7040 
  92   0.0000       1.476104        40.1668 
  93   0.0000       1.498587        40.7786 
  94   0.0000       1.539658        41.8962 
  95   0.0000       1.612553        43.8798 
  96   0.0000       1.677581        45.6493 
  97   0.0000       1.711764        46.5795 
  98   0.0000       1.820841        49.5476 
  99   0.0000       1.843391        50.1612 
 100   0.0000       1.853878        50.4466 
 101   0.0000       1.857457        50.5440 
 102   0.0000       1.882962        51.2380 
 103   0.0000       1.906419        51.8763 
 104   0.0000       1.916450        52.1492 
 105   0.0000       1.949079        53.0371 
 106   0.0000       1.988080        54.0984 
 107   0.0000       2.016551        54.8731 
 108   0.0000       2.026215        55.1361 
 109   0.0000       2.059570        56.0438 
 110   0.0000       2.076394        56.5016 
 111   0.0000       2.137988        58.1776 
 112   0.0000       2.194229        59.7080 
 113   0.0000       2.218595        60.3710 
 114   0.0000       2.234620        60.8071 
 115   0.0000       2.276774        61.9542 
 116   0.0000       2.317504        63.0625 
 117   0.0000       2.328931        63.3734 
 118   0.0000       2.348289        63.9002 
 119   0.0000       2.376549        64.6692 
 120   0.0000       2.394387        65.1546 
 121   0.0000       2.427953        66.0680 
 122   0.0000       2.431242        66.1575 
 123   0.0000       2.469747        67.2052 
 124   0.0000       2.592877        70.5558 
 125   0.0000       2.675190        72.7956 
 126   0.0000       2.678891        72.8963 
 127   0.0000       2.714064        73.8534 
 128   0.0000       2.743173        74.6455 
 129   0.0000       2.758275        75.0565 
 130   0.0000       2.848661        77.5160 
 131   0.0000       2.894751        78.7702 
 132   0.0000       2.908842        79.1536 
 133   0.0000       2.990009        81.3623 
 134   0.0000       3.043260        82.8113 
 135   0.0000       3.109712        84.6196 
 136   0.0000       3.327575        90.5479 
 137   0.0000       3.542367        96.3927 
 138   0.0000      13.425762       365.3335 
 139   0.0000      13.850896       376.9020 
 140   0.0000      13.978682       380.3793 
 141   0.0000      13.989650       380.6777 
 142   0.0000      14.265318       388.1790 
 143   0.0000      19.264128       524.2036 
 144   0.0000      19.383700       527.4573 
 145   0.0000      25.742213       700.4812 
 146   0.0000      25.772873       701.3155 

                    ********************************
                    * MULLIKEN POPULATION ANALYSIS *
                    ********************************

-----------------------
MULLIKEN ATOMIC CHARGES
-----------------------
   0 N :   -0.672832
   1 N :   -0.716687
   2 C :   -0.158435
   3 C :    0.561702
   4 C :    0.042983
   5 C :    0.669043
   6 C :   -0.677806
   7 O :   -0.390544
   8 O :   -0.422023
   9 H :    0.392443
  10 H :    0.399811
  11 H :    0.261075
  12 H :    0.248656
  13 H :    0.248656
  14 H :    0.213957
Sum of atomic charges:   -0.0000000

--------------------------------
MULLIKEN REDUCED ORBITAL CHARGES
--------------------------------
  0 N s       :     3.567744  s :     3.567744
      pz      :     1.656852  p :     4.069379
      px      :     1.181111
      py      :     1.231416
      dz2     :     0.004316  d :     0.035709
      dxz     :     0.004553
      dyz     :     0.003873
      dx2y2   :     0.010960
      dxy     :     0.012008
  1 N s       :     3.591237  s :     3.591237
      pz      :     1.656052  p :     4.093270
      px      :     1.285156
      py      :     1.152061
      dz2     :     0.004432  d :     0.032180
      dxz     :     0.001329
      dyz     :     0.005168
      dx2y2   :     0.012998
      dxy     :     0.008253
  2 C s       :     3.214371  s :     3.214371
      pz      :     1.081000  p :     2.901193
      px      :     0.880472
      py      :     0.939721
      dz2     :     0.003708  d :     0.042872
      dxz     :     0.003171
      dyz     :     0.008772
      dx2y2   :     0.016031
      dxy     :     0.011188
  3 C s       :     2.915328  s :     2.915328
      pz      :     0.784964  p :     2.399445
      px      :     0.880065
      py      :     0.734416
      dz2     :     0.006238  d :     0.123526
      dxz     :     0.011772
      dyz     :     0.023802
      dx2y2   :     0.047584
      dxy     :     0.034130
  4 C s       :     3.134197  s :     3.134197
      pz      :     0.949569  p :     2.763270
      px      :     0.973986
      py      :     0.839715
      dz2     :     0.004806  d :     0.059550
      dxz     :     0.002917
      dyz     :     0.016129
      dx2y2   :     0.018472
      dxy     :     0.017227
  5 C s       :     2.798445  s :     2.798445
      pz      :     0.796900  p :     2.385319
      px      :     0.789151
      py      :     0.799268
      dz2     :     0.006731  d :     0.147193
      dxz     :     0.019158
      dyz     :     0.027040
      dx2y2   :     0.055730
      dxy     :     0.038534
  6 C s       :     3.406320  s :     3.406320
      pz      :     1.169834  p :     3.234078
      px      :     1.071273
      py      :     0.992971
      dz2     :     0.007463  d :     0.037408
      dxz     :     0.002045
      dyz     :     0.012607
      dx2y2   :     0.009360
      dxy     :     0.005933
  7 O s       :     3.754371  s :     3.754371
      pz      :     1.435427  p :     4.605987
      px      :     1.655297
      py      :     1.515263
      dz2     :     0.002751  d :     0.030187
      dxz     :     0.003634
      dyz     :     0.007971
      dx2y2   :     0.007273
      dxy     :     0.008558
  8 O s       :     3.752351  s :     3.752351
      pz      :     1.494820  p :     4.638844
      px      :     1.674487
      py      :     1.469537
      dz2     :     0.002907  d :     0.030828
      dxz     :     0.003011
      dyz     :     0.008606
      dx2y2   :     0.007579
      dxy     :     0.008724
  9 H s       :     0.607557  s :     0.607557
 10 H s       :     0.600189  s :     0.600189
 11 H s       :     0.738925  s :     0.738925
 12 H s       :     0.751344  s :     0.751344
 13 H s       :     0.751344  s :     0.751344
 14 H s       :     0.786043  s :     0.786043


                     *******************************
                     * LOEWDIN POPULATION ANALYSIS *
                     *******************************

----------------------
LOEWDIN ATOMIC CHARGES
----------------------
   0 N :   -0.180052
   1 N :   -0.190825
   2 C :   -0.149030
   3 C :    0.119839
   4 C :   -0.028052
   5 C :    0.132819
   6 C :   -0.333397
   7 O :   -0.245283
   8 O :   -0.269619
   9 H :    0.283393
  10 H :    0.288882
  11 H :    0.145458
  12 H :    0.147720
  13 H :    0.147720
  14 H :    0.130429

-------------------------------
LOEWDIN REDUCED ORBITAL CHARGES
-------------------------------
  0 N s       :     3.083242  s :     3.083242
      pz      :     1.599034  p :     4.009893
      px      :     1.203517
      py      :     1.207341
      dz2     :     0.006845  d :     0.086918
      dxz     :     0.009896
      dyz     :     0.007920
      dx2y2   :     0.030449
      dxy     :     0.031807
  1 N s       :     3.109585  s :     3.109585
      pz      :     1.589877  p :     4.002919
      px      :     1.223562
      py      :     1.189479
      dz2     :     0.007749  d :     0.078321
      dxz     :     0.002000
      dyz     :     0.011274
      dx2y2   :     0.032951
      dxy     :     0.024348
  2 C s       :     2.859749  s :     2.859749
      pz      :     1.050912  p :     3.184271
      px      :     1.057099
      py      :     1.076260
      dz2     :     0.007774  d :     0.105011
      dxz     :     0.006945
      dyz     :     0.016130
      dx2y2   :     0.041833
      dxy     :     0.032330
  3 C s       :     2.808733  s :     2.808733
      pz      :     0.797879  p :     2.790478
      px      :     1.035089
      py      :     0.957510
      dz2     :     0.015137  d :     0.280951
      dxz     :     0.022792
      dyz     :     0.048421
      dx2y2   :     0.114840
      dxy     :     0.079761
  4 C s       :     2.873647  s :     2.873647
      pz      :     0.951489  p :     3.020430
      px      :     1.059714
      py      :     1.009227
      dz2     :     0.009166  d :     0.133976
      dxz     :     0.004717
      dyz     :     0.034946
      dx2y2   :     0.044275
      dxy     :     0.040872
  5 C s       :     2.774144  s :     2.774144
      pz      :     0.815499  p :     2.761737
      px      :     0.954183
      py      :     0.992055
      dz2     :     0.016971  d :     0.331300
      dxz     :     0.039450
      dyz     :     0.054529
      dx2y2   :     0.130744
      dxy     :     0.089606
  6 C s       :     2.935799  s :     2.935799
      pz      :     1.151107  p :     3.326676
      px      :     1.102637
      py      :     1.072932
      dz2     :     0.012809  d :     0.070922
      dxz     :     0.003095
      dyz     :     0.023359
      dx2y2   :     0.018301
      dxy     :     0.013359
  7 O s       :     3.516090  s :     3.516090
      pz      :     1.428773  p :     4.672490
      px      :     1.683640
      py      :     1.560078
      dz2     :     0.006708  d :     0.056702
      dxz     :     0.004758
      dyz     :     0.010666
      dx2y2   :     0.014430
      dxy     :     0.020140
  8 O s       :     3.517251  s :     3.517251
      pz      :     1.485265  p :     4.695722
      px      :     1.684467
      py      :     1.525989
      dz2     :     0.006876  d :     0.056646
      dxz     :     0.004079
      dyz     :     0.011679
      dx2y2   :     0.014787
      dxy     :     0.019226
  9 H s       :     0.716607  s :     0.716607
 10 H s       :     0.711118  s :     0.711118
 11 H s       :     0.854542  s :     0.854542
 12 H s       :     0.852280  s :     0.852280
 13 H s       :     0.852280  s :     0.852280
 14 H s       :     0.869571  s :     0.869571


                      *****************************
                      * MAYER POPULATION ANALYSIS *
                      *****************************

  NA   - Mulliken gross atomic population
  ZA   - Total nuclear charge
  QA   - Mulliken gross atomic charge
  VA   - Mayer's total valence
  BVA  - Mayer's bonded valence
  FA   - Mayer's free valence

  ATOM       NA         ZA         QA         VA         BVA        FA
  0 N      7.6728     7.0000    -0.6728     3.0855     3.0855     0.0000
  1 N      7.7167     7.0000    -0.7167     3.0048     3.0048    -0.0000
  2 C      6.1584     6.0000    -0.1584     3.7281     3.7281    -0.0000
  3 C      5.4383     6.0000     0.5617     4.0573     4.0573    -0.0000
  4 C      5.9570     6.0000     0.0430     3.6656     3.6656     0.0000
  5 C      5.3310     6.0000     0.6690     4.1545     4.1545     0.0000
  6 C      6.6778     6.0000    -0.6778     3.7368     3.7368    -0.0000
  7 O      8.3905     8.0000    -0.3905     2.2398     2.2398    -0.0000
  8 O      8.4220     8.0000    -0.4220     2.2184     2.2184     0.0000
  9 H      0.6076     1.0000     0.3924     0.8300     0.8300     0.0000
 10 H      0.6002     1.0000     0.3998     0.8315     0.8315     0.0000
 11 H      0.7389     1.0000     0.2611     0.8926     0.8926     0.0000
 12 H      0.7513     1.0000     0.2487     0.8987     0.8987    -0.0000
 13 H      0.7513     1.0000     0.2487     0.8987     0.8987     0.0000
 14 H      0.7860     1.0000     0.2140     0.9130     0.9130     0.0000

  Mayer bond orders larger than 0.100000
B(  0-N ,  4-C ) :   1.0611 B(  0-N ,  5-C ) :   1.0464 B(  0-N ,  9-H ) :   0.8084 
B(  1-N ,  3-C ) :   1.0010 B(  1-N ,  5-C ) :   1.0608 B(  1-N , 10-H ) :   0.7973 
B(  2-C ,  3-C ) :   1.0189 B(  2-C ,  4-C ) :   1.6569 B(  2-C ,  6-C ) :   0.9870 
B(  3-C ,  7-O ) :   2.0581 B(  4-C , 11-H ) :   0.9042 B(  5-C ,  8-O ) :   2.0422 
B(  6-C , 12-H ) :   0.9095 B(  6-C , 13-H ) :   0.9095 B(  6-C , 14-H ) :   0.9285 


-------
TIMINGS
-------

Total SCF time: 0 days 0 hours 1 min 36 sec 

Total time                  ....      96.424 sec
Sum of individual times     ....      88.001 sec  ( 91.3%)

Fock matrix formation       ....      75.416 sec  ( 78.2%)
  Split-RI-J                ....       8.067 sec  ( 10.7% of F)
  Chain of spheres X        ....      33.310 sec  ( 44.2% of F)
  XC integration            ....      19.301 sec  ( 25.6% of F)
    Basis function eval.    ....       3.686 sec  ( 19.1% of XC)
    Density eval.           ....       2.267 sec  ( 11.7% of XC)
    XC-Functional eval.     ....       1.564 sec  (  8.1% of XC)
    XC-Potential eval.      ....       1.554 sec  (  8.1% of XC)
Diagonalization             ....       0.855 sec  (  0.9%)
Density matrix formation    ....       0.228 sec  (  0.2%)
Population analysis         ....       0.257 sec  (  0.3%)
Initial guess               ....       0.025 sec  (  0.0%)
Orbital Transformation      ....       0.000 sec  (  0.0%)
Orbital Orthonormalization  ....       0.000 sec  (  0.0%)
DIIS solution               ....       2.549 sec  (  2.6%)
SOSCF solution              ....       0.852 sec  (  0.9%)
Grid generation             ....       7.818 sec  (  8.1%)

Maximum memory used throughout the entire SCF-calculation: 55.6 MB


-------------------------------------------------------------------------------
                          DFT DISPERSION CORRECTION                            
                                                                               
                              DFTD3 V3.1  Rev 1                                
                          USING Becke-Johnson damping                          
-------------------------------------------------------------------------------
The PBEh-3c composite method is recognized
Using three-body term ABC
Active option DFTDOPT                   ...         4   

molecular C6(AA) [au] = 2477.314179 


            DFT-D V3
 parameters
 s6 scaling factor         :     1.0000 
 a1 scaling factor         :     0.4860 
 s8 scaling factor         :     0.0000 
 a2 scaling factor         :     4.5000 
 Damping factor alpha9(ATM):    16.0000 
 ad hoc parameters k1-k3   :    16.0000     1.3333    -4.0000 

 Edisp/kcal,au: -5.115785353732  -0.008152522025 
 E6   /kcal   :  -5.128335032 
 E8   /kcal   :  -0.000000000 
 E6(ABC)      :   0.012549678 
 % E8         :   0.000000000 
 % E6(ABC)    :  -0.245312839 

-------------------------   ----------------
Dispersion correction           -0.008152522
-------------------------   ----------------

------------------   -----------------
gCP correction             0.028648302
------------------   -----------------

-------------------------   --------------------
FINAL SINGLE POINT ENERGY      -453.174562161088
-------------------------   --------------------


                            ***************************************
                            *     ORCA property calculations      *
                            ***************************************

                                    ---------------------
                                    Active property flags
                                    ---------------------
   (+) Dipole Moment


------------------------------------------------------------------------------
                       ORCA ELECTRIC PROPERTIES CALCULATION
------------------------------------------------------------------------------

Dipole Moment Calculation                       ... on
Quadrupole Moment Calculation                   ... off
Polarizability Calculation                      ... off
GBWName                                         ... pbeh-3c.gbw
Electron density                                ... pbeh-3c.scfp
The origin for moment calculation is the CENTER OF MASS  = ( 0.940815,  0.617817  0.000000)

-------------
DIPOLE MOMENT
-------------
                                X             Y             Z
Electronic contribution:      5.02485       4.79582      -0.00000
Nuclear contribution   :     -6.74590      -4.50862       0.00000
                        -----------------------------------------
Total Dipole Moment    :     -1.72105       0.28720      -0.00000
                        -----------------------------------------
Magnitude (a.u.)       :      1.74485
Magnitude (Debye)      :      4.43505



--------------------
Rotational spectrum 
--------------------
 
Rotational constants in cm-1:     0.107820     0.047547     0.033199 
Rotational constants in MHz :  3232.375276  1425.429609   995.267631 

 Dipole components along the rotational axes: 
x,y,z [a.u.] :     0.266501     1.724375    -0.000000 
x,y,z [Debye]:     0.677392     4.383012    -0.000000 

 

Timings for individual modules:

Sum of individual times         ...       99.585 sec (=   1.660 min)
GTO integral calculation        ...        2.282 sec (=   0.038 min)   2.3 %
SCF iterations                  ...       97.303 sec (=   1.622 min)  97.7 %
                             ****ORCA TERMINATED NORMALLY****
TOTAL RUN TIME: 0 days 0 hours 1 minutes 41 seconds 236 msec
