
                                 *****************
                                 * O   R   C   A *
                                 *****************

                                            #,                                       
                                            ###                                      
                                            ####                                     
                                            #####                                    
                                            ######                                   
                                           ########,                                 
                                     ,,################,,,,,                         
                               ,,#################################,,                 
                          ,,##########################################,,             
                       ,#########################################, ''#####,          
                    ,#############################################,,   '####,        
                  ,##################################################,,,,####,       
                ,###########''''           ''''###############################       
              ,#####''   ,,,,##########,,,,          '''####'''          '####       
            ,##' ,,,,###########################,,,                        '##       
           ' ,,###''''                  '''############,,,                           
         ,,##''                                '''############,,,,        ,,,,,,###''
      ,#''                                            '''#######################'''  
     '                                                          ''''####''''         
             ,#######,   #######,   ,#######,      ##                                
            ,#'     '#,  ##    ##  ,#'     '#,    #''#        ######   ,####,        
            ##       ##  ##   ,#'  ##            #'  '#       #        #'  '#        
            ##       ##  #######   ##           ,######,      #####,   #    #        
            '#,     ,#'  ##    ##  '#,     ,#' ,#      #,         ##   #,  ,#        
             '#######'   ##     ##  '#######'  #'      '#     #####' # '####'        



                  #######################################################
                  #                        -***-                        #
                  #          Department of theory and spectroscopy      #
                  #    Directorship and core code : Frank Neese         #
                  #        Max Planck Institute fuer Kohlenforschung    #
                  #                Kaiser Wilhelm Platz 1               #
                  #                 D-45470 Muelheim/Ruhr               #
                  #                      Germany                        #
                  #                                                     #
                  #                  All rights reserved                #
                  #                        -***-                        #
                  #######################################################


                         Program Version 5.0.3 -  RELEASE  -


 With contributions from (in alphabetic order):
   Daniel Aravena         : Magnetic Suceptibility
   Michael Atanasov       : Ab Initio Ligand Field Theory (pilot matlab implementation)
   Alexander A. Auer      : GIAO ZORA, VPT2 properties, NMR spectrum
   Ute Becker             : Parallelization
   Giovanni Bistoni       : ED, misc. LED, open-shell LED, HFLD
   Martin Brehm           : Molecular dynamics
   Dmytro Bykov           : SCF Hessian
   Vijay G. Chilkuri      : MRCI spin determinant printing, contributions to CSF-ICE
   Dipayan Datta          : RHF DLPNO-CCSD density
   Achintya Kumar Dutta   : EOM-CC, STEOM-CC
   Dmitry Ganyushin       : Spin-Orbit,Spin-Spin,Magnetic field MRCI
   Miquel Garcia          : C-PCM and meta-GGA Hessian, CC/C-PCM, Gaussian charge scheme
   Yang Guo               : DLPNO-NEVPT2, F12-NEVPT2, CIM, IAO-localization
   Andreas Hansen         : Spin unrestricted coupled pair/coupled cluster methods
   Benjamin Helmich-Paris : MC-RPA, TRAH-SCF, COSX integrals
   Lee Huntington         : MR-EOM, pCC
   Robert Izsak           : Overlap fitted RIJCOSX, COSX-SCS-MP3, EOM
   Marcus Kettner         : VPT2
   Christian Kollmar      : KDIIS, OOCD, Brueckner-CCSD(T), CCSD density, CASPT2, CASPT2-K
   Simone Kossmann        : Meta GGA functionals, TD-DFT gradient, OOMP2, MP2 Hessian
   Martin Krupicka        : Initial AUTO-CI
   Lucas Lang             : DCDCAS
   Marvin Lechner         : AUTO-CI (C++ implementation), FIC-MRCC
   Dagmar Lenk            : GEPOL surface, SMD
   Dimitrios Liakos       : Extrapolation schemes; Compound Job, initial MDCI parallelization
   Dimitrios Manganas     : Further ROCIS development; embedding schemes
   Dimitrios Pantazis     : SARC Basis sets
   Anastasios Papadopoulos: AUTO-CI, single reference methods and gradients
   Taras Petrenko         : DFT Hessian,TD-DFT gradient, ASA, ECA, R-Raman, ABS, FL, XAS/XES, NRVS
   Peter Pinski           : DLPNO-MP2, DLPNO-MP2 Gradient
   Christoph Reimann      : Effective Core Potentials
   Marius Retegan         : Local ZFS, SOC
   Christoph Riplinger    : Optimizer, TS searches, QM/MM, DLPNO-CCSD(T), (RO)-DLPNO pert. Triples
   Tobias Risthaus        : Range-separated hybrids, TD-DFT gradient, RPA, STAB
   Michael Roemelt        : Original ROCIS implementation
   Masaaki Saitow         : Open-shell DLPNO-CCSD energy and density
   Barbara Sandhoefer     : DKH picture change effects
   Avijit Sen             : IP-ROCIS
   Kantharuban Sivalingam : CASSCF convergence, NEVPT2, FIC-MRCI
   Bernardo de Souza      : ESD, SOC TD-DFT
   Georgi Stoychev        : AutoAux, RI-MP2 NMR, DLPNO-MP2 response
   Willem Van den Heuvel  : Paramagnetic NMR
   Boris Wezisla          : Elementary symmetry handling
   Frank Wennmohs         : Technical directorship


 We gratefully acknowledge several colleagues who have allowed us to
 interface, adapt or use parts of their codes:
   Stefan Grimme, W. Hujo, H. Kruse, P. Pracht,  : VdW corrections, initial TS optimization,
                  C. Bannwarth, S. Ehlert          DFT functionals, gCP, sTDA/sTD-DF
   Ed Valeev, F. Pavosevic, A. Kumar             : LibInt (2-el integral package), F12 methods
   Garnet Chan, S. Sharma, J. Yang, R. Olivares  : DMRG
   Ulf Ekstrom                                   : XCFun DFT Library
   Mihaly Kallay                                 : mrcc  (arbitrary order and MRCC methods)
   Jiri Pittner, Ondrej Demel                    : Mk-CCSD
   Frank Weinhold                                : gennbo (NPA and NBO analysis)
   Christopher J. Cramer and Donald G. Truhlar   : smd solvation model
   Lars Goerigk                                  : TD-DFT with DH, B97 family of functionals
   V. Asgeirsson, H. Jonsson                     : NEB implementation
   FAccTs GmbH                                   : IRC, NEB, NEB-TS, DLPNO-Multilevel, CI-OPT
                                                   MM, QMMM, 2- and 3-layer-ONIOM, Crystal-QMMM,
                                                   LR-CPCM, SF, NACMEs, symmetry and pop. for TD-DFT,
                                                   nearIR, NL-DFT gradient (VV10), updates on ESD,
                                                   ML-optimized integration grids
   S Lehtola, MJT Oliveira, MAL Marques          : LibXC Library
   Liviu Ungur et al                             : ANISO software


 Your calculation uses the libint2 library for the computation of 2-el integrals
 For citations please refer to: http://libint.valeyev.net

 Your ORCA version has been built with support for libXC version: 5.1.0
 For citations please refer to: https://tddft.org/programs/libxc/

 This ORCA versions uses:
   CBLAS   interface :  Fast vector & matrix operations
   LAPACKE interface :  Fast linear algebra routines
   SCALAPACK package :  Parallel linear algebra routines
   Shared memory     :  Shared parallel matrices
   BLAS/LAPACK       :  OpenBLAS 0.3.15  USE64BITINT DYNAMIC_ARCH NO_AFFINITY Haswell SINGLE_THREADED
        Core in use  :  Haswell
   Copyright (c) 2011-2014, The OpenBLAS Project




***************************************
The coordinates will be read from file: ts10.xyz
***************************************


Your calculation utilizes the geometrical counterpoise correction gCP
Please cite in your paper:
H.Kruse, S. Grimme J.Chem.Phys., 136, (2012), 154101 
   

Your calculation utilizes the atom-pairwise dispersion correction
with the Becke-Johnson damping scheme (D3BJ)
Cite in your paper:
S.Grimme, S.Ehrlich, L.Goerigk, J Comput Chem, (2011), 32, 1456–1465 
S.Grimme, J.Antony, S.Ehrlich and H.Krieg, J.Chem.Phys., 132, (2010), 154104 
   

Your calculation employs the composite approach PBEh-3c.
Please cite in your paper:
S. Grimme, J. G. Brandenburg, C. Bannwarth, A. Hansen J.Chem.Phys., 143, (2015), 054107 
   

================================================================================

----- Orbital basis set information -----
Your calculation utilizes the basis: def2-mSVP

----- AuxJ basis set information -----
Your calculation utilizes the auxiliary basis: def2/J
   F. Weigend, Phys. Chem. Chem. Phys. 8, 1057 (2006).

================================================================================
                                        WARNINGS
                       Please study these warnings very carefully!
================================================================================


INFO   : the flag for use of the SHARK integral package has been found!

================================================================================
                                       INPUT FILE
================================================================================
NAME = pbeh-3c.inp
|  1> ! PBEh-3c def2/J TightSCF DefGrid3
|  2> 
|  3> %maxcore 60000
|  4> 
|  5> %pal
|  6> nprocs 4
|  7> end
|  8> 
|  9> *xyzfile 0 1 ts10.xyz
| 10> 
| 11>                          ****END OF INPUT****
================================================================================

                       ****************************
                       * Single Point Calculation *
                       ****************************

---------------------------------
CARTESIAN COORDINATES (ANGSTROEM)
---------------------------------
  C     -0.345714   -0.172891    0.000000
  C      1.384377   -0.052007    0.000000
  N      0.980082    1.064066    0.000000
  H     -1.027259    0.672774    0.000000
  H     -0.495743   -0.755971    0.900485
  H     -0.495743   -0.755971   -0.900485

----------------------------
CARTESIAN COORDINATES (A.U.)
----------------------------
  NO LB      ZA    FRAG     MASS         X           Y           Z
   0 C     6.0000    0    12.011   -0.653304   -0.326716    0.000000
   1 C     6.0000    0    12.011    2.616094   -0.098280    0.000000
   2 N     7.0000    0    14.007    1.852086    2.010794    0.000000
   3 H     1.0000    0     1.008   -1.941238    1.271359    0.000000
   4 H     1.0000    0     1.008   -0.936819   -1.428578    1.701670
   5 H     1.0000    0     1.008   -0.936819   -1.428578   -1.701670

--------------------------------
INTERNAL COORDINATES (ANGSTROEM)
--------------------------------
 C      0   0   0     0.000000000000     0.00000000     0.00000000
 C      1   0   0     1.734308595602     0.00000000     0.00000000
 N      2   1   0     1.187044542974    74.08401514     0.00000000
 H      1   2   3     1.086118794318   124.86949836     0.00000000
 H      1   2   3     1.083219749604   100.11856518   237.61181536
 H      1   2   3     1.083219749604   100.11856518   122.38818464

---------------------------
INTERNAL COORDINATES (A.U.)
---------------------------
 C      0   0   0     0.000000000000     0.00000000     0.00000000
 C      1   0   0     3.277368277394     0.00000000     0.00000000
 N      2   1   0     2.243189094987    74.08401514     0.00000000
 H      1   2   3     2.052467070165   124.86949836     0.00000000
 H      1   2   3     2.046988669607   100.11856518   237.61181536
 H      1   2   3     2.046988669607   100.11856518   122.38818464

---------------------
BASIS SET INFORMATION
---------------------
There are 3 groups of distinct atoms

 Group   1 Type C   : 8s4p1d contracted to 4s2p1d pattern {5111/31/1}
 Group   2 Type N   : 8s4p1d contracted to 4s2p1d pattern {5111/31/1}
 Group   3 Type H   : 4s contracted to 2s pattern {31}

Atom   0C    basis set group =>   1
Atom   1C    basis set group =>   1
Atom   2N    basis set group =>   2
Atom   3H    basis set group =>   3
Atom   4H    basis set group =>   3
Atom   5H    basis set group =>   3
---------------------------------
AUXILIARY/J BASIS SET INFORMATION
---------------------------------
There are 3 groups of distinct atoms

 Group   1 Type C   : 12s5p4d2f1g contracted to 6s4p3d1f1g pattern {711111/2111/211/2/1}
 Group   2 Type N   : 12s5p4d2f1g contracted to 6s4p3d1f1g pattern {711111/2111/211/2/1}
 Group   3 Type H   : 5s2p1d contracted to 3s1p1d pattern {311/2/1}

Atom   0C    basis set group =>   1
Atom   1C    basis set group =>   1
Atom   2N    basis set group =>   2
Atom   3H    basis set group =>   3
Atom   4H    basis set group =>   3
Atom   5H    basis set group =>   3


           ************************************************************
           *        Program running with 4 parallel MPI-processes     *
           *              working on a common directory               *
           ************************************************************
------------------------------------------------------------------------------
                           ORCA GTO INTEGRAL CALCULATION
                           -- RI-GTO INTEGRALS CHOSEN --
------------------------------------------------------------------------------
------------------------------------------------------------------------------
                   ___                                                        
                  /   \      - P O W E R E D   B Y -                         
                 /     \                                                     
                 |  |  |   _    _      __       _____    __    __             
                 |  |  |  | |  | |    /  \     |  _  \  |  |  /  |          
                  \  \/   | |  | |   /    \    | | | |  |  | /  /          
                 / \  \   | |__| |  /  /\  \   | |_| |  |  |/  /          
                |  |  |   |  __  | /  /__\  \  |    /   |      \           
                |  |  |   | |  | | |   __   |  |    \   |  |\   \          
                \     /   | |  | | |  |  |  |  | |\  \  |  | \   \       
                 \___/    |_|  |_| |__|  |__|  |_| \__\ |__|  \__/        
                                                                              
                      - O R C A' S   B I G   F R I E N D -                    
                                      &                                       
                       - I N T E G R A L  F E E D E R -                       
                                                                              
 v1 FN, 2020, v2 2021                                                         
------------------------------------------------------------------------------


Reading SHARK input file pbeh-3c.SHARKINP.tmp ... ok
----------------------
SHARK INTEGRAL PACKAGE
----------------------

Number of atoms                             ...      6
Number of basis functions                   ...     51
Number of shells                            ...     27
Maximum angular momentum                    ...      2
Integral batch strategy                     ... SHARK/LIBINT Hybrid
RI-J (if used) integral strategy            ... SPLIT-RIJ (Revised 2003 algorithm where possible)
Printlevel                                  ...      1
Contraction scheme used                     ... SEGMENTED contraction
Coulomb Range Separation                    ... NOT USED
Exchange Range Separation                   ... NOT USED
Finite Nucleus Model                        ... NOT USED
Auxiliary Coulomb fitting basis             ... AVAILABLE
   # of basis functions in Aux-J            ...    180
   # of shells in Aux-J                     ...     60
   Maximum angular momentum in Aux-J        ...      4
Auxiliary J/K fitting basis                 ... NOT available
Auxiliary Correlation fitting basis         ... NOT available
Auxiliary 'external' fitting basis          ... NOT available
Integral threshold                          ...     2.500000e-11
Primitive cut-off                           ...     2.500000e-12
Primitive pair pre-selection threshold      ...     2.500000e-12

Calculating pre-screening integrals         ... done (  0.1 sec) Dimension = 27
Organizing shell pair data                  ... done (  0.5 sec)
Shell pair information
Total number of shell pairs                 ...       378
Shell pairs after pre-screening             ...       371
Total number of primitive shell pairs       ...      1374
Primitive shell pairs kept                  ...      1130
          la=0 lb=0:    164 shell pairs
          la=1 lb=0:    108 shell pairs
          la=1 lb=1:     21 shell pairs
          la=2 lb=0:     54 shell pairs
          la=2 lb=1:     18 shell pairs
          la=2 lb=2:      6 shell pairs

Calculating one electron integrals          ... done (  0.1 sec)
Calculating RI/J V-Matrix + Cholesky decomp.... done (  1.2 sec)
Calculating Nuclear repulsion               ... done (  0.1 sec) ENN=     60.551743043862 Eh

SHARK setup successfully completed in   3.0 seconds

Maximum memory used throughout the entire GTOINT-calculation: 9.1 MB


           ************************************************************
           *        Program running with 4 parallel MPI-processes     *
           *              working on a common directory               *
           ************************************************************
-------------------------------------------------------------------------------
                                 ORCA SCF
-------------------------------------------------------------------------------

------------
SCF SETTINGS
------------
Hamiltonian:
 Density Functional     Method          .... DFT(GTOs)
 Exchange Functional    Exchange        .... PBE
   PBE kappa parameter   XKappa         ....  1.024500
   PBE mue parameter    XMuePBE         ....  0.123457
 Correlation Functional Correlation     .... PBE
   PBE beta parameter  CBetaPBE         ....  0.030000
 LDA part of GGA corr.  LDAOpt          .... PW91-LDA
 Gradients option       PostSCFGGA      .... off
 Hybrid DFT is turned on
   Fraction HF Exchange ScalHFX         ....  0.420000
   Scaling of DF-GGA-X  ScalDFX         ....  0.580000
   Scaling of DF-GGA-C  ScalDFC         ....  1.000000
   Scaling of DF-LDA-C  ScalLDAC        ....  1.000000
   Perturbative correction              ....  0.000000
   Density functional embedding theory  .... OFF
 RI-approximation to the Coulomb term is turned on
   Number of AuxJ basis functions       .... 180
   RIJ-ON(X) (HFX calculated with O(N)) .... on
   Number of AuxJ basis functions       .... 180
   RIJ-COSX (HFX calculated with COS-X)).... on


General Settings:
 Integral files         IntName         .... pbeh-3c
 Hartree-Fock type      HFTyp           .... RHF
 Total Charge           Charge          ....    0
 Multiplicity           Mult            ....    1
 Number of Electrons    NEL             ....   22
 Basis Dimension        Dim             ....   51
 Nuclear Repulsion      ENuc            ....     60.5517430439 Eh

Convergence Acceleration:
 DIIS                   CNVDIIS         .... on
   Start iteration      DIISMaxIt       ....    12
   Startup error        DIISStart       ....  0.200000
   # of expansion vecs  DIISMaxEq       ....     5
   Bias factor          DIISBfac        ....   1.050
   Max. coefficient     DIISMaxC        ....  10.000
 Trust-Rad. Augm. Hess. CNVTRAH         .... auto
   Auto Start mean grad. ratio tolernc. ....  1.125000
   Auto Start start iteration           ....    20
   Auto Start num. interpolation iter.  ....    10
   Max. Number of Micro iterations      ....    16
   Max. Number of Macro iterations      .... Maxiter - #DIIS iter
   Number of Davidson start vectors     ....     2
   Converg. threshold I  (grad. norm)   ....   1.000e-05
   Converg. threshold II (energy diff.) ....   1.000e-08
   Grad. Scal. Fac. for Micro threshold ....   0.100
   Minimum threshold for Micro iter.    ....   0.010
   NR start threshold (gradient norm)   ....   0.001
   Initial trust radius                 ....   0.400
   Minimum AH scaling param. (alpha)    ....   1.000
   Maximum AH scaling param. (alpha)    .... 1000.000
   Orbital update algorithm             .... Taylor
   White noise on init. David. guess    .... on
   Maximum white noise                  ....   0.010
   Quad. conv. algorithm                .... NR
   COSX micro iterations for RIJONX calc.... off
 SOSCF                  CNVSOSCF        .... on
   Start iteration      SOSCFMaxIt      ....   150
   Startup grad/error   SOSCFStart      ....  0.003300
 Level Shifting         CNVShift        .... on
   Level shift para.    LevelShift      ....    0.2500
   Turn off err/grad.   ShiftErr        ....    0.0010
 Zerner damping         CNVZerner       .... off
 Static damping         CNVDamp         .... on
   Fraction old density DampFac         ....    0.7000
   Max. Damping (<1)    DampMax         ....    0.9800
   Min. Damping (>=0)   DampMin         ....    0.0000
   Turn off err/grad.   DampErr         ....    0.1000
 Fernandez-Rico         CNVRico         .... off

SCF Procedure:
 Maximum # iterations   MaxIter         ....   125
 SCF integral mode      SCFMode         .... Direct
   Integral package                     .... SHARK and LIBINT hybrid scheme
 Reset frequency        DirectResetFreq ....    20
 Integral Threshold     Thresh          ....  2.500e-11 Eh
 Primitive CutOff       TCut            ....  2.500e-12 Eh

Convergence Tolerance:
 Convergence Check Mode ConvCheckMode   .... Total+1el-Energy
 Convergence forced     ConvForced      .... 0
 Energy Change          TolE            ....  1.000e-08 Eh
 1-El. energy change                    ....  1.000e-05 Eh
 Orbital Gradient       TolG            ....  1.000e-05
 Orbital Rotation angle TolX            ....  1.000e-05
 DIIS Error             TolErr          ....  5.000e-07


Diagonalization of the overlap matrix:
Smallest eigenvalue                        ... 1.074e-02
Time for diagonalization                   ...    0.001 sec
Threshold for overlap eigenvalues          ... 1.000e-08
Number of eigenvalues below threshold      ... 0
Time for construction of square roots      ...    0.328 sec
Total time needed                          ...    0.349 sec

--------------------------------
INITIAL GUESS: MINIMAL BASIS EHT
--------------------------------
The minimal basis has 18 functions
EHT matrix was diagonalized
Basis set overlap was calculated now projecting the orbitals
Using GuessMode=FMatrix for the initial guess
C*T matrix was formed
Effective Fockian was calculated
Effective Fockian was diagonalized
Initial density was built
                      ------------------
                      INITIAL GUESS DONE
                      ------------------
-------------------
DFT GRID GENERATION
-------------------

General Integration Accuracy     IntAcc      ... 4.959
Radial Grid Type                 RadialGrid  ... OptM3 with GC (2021)
Angular Grid (max. ang.)         AngularGrid ... 6 (Lebedev-590)
Angular grid pruning method      GridPruning ... 4 (adaptive)
Weight generation scheme         WeightScheme... Becke
Basis function cutoff            BFCut       ... 1.0000e-11
Integration weight cutoff        WCut        ... 1.0000e-14
Angular grids for H and He will be reduced by one unit
Partially contracted basis set               ... off
Rotationally invariant grid construction     ... off

Total number of grid points                  ...    70297
Total number of batches                      ...     1102
Average number of points per batch           ...       63
Average number of grid points per atom       ...    11716
Time for grid setup =    1.824 sec

--------------------
COSX GRID GENERATION
--------------------

GRIDX 1
-------
General Integration Accuracy     IntAcc      ... 4.020
Radial Grid Type                 RadialGrid  ... OptM3 with GC (2021)
Angular Grid (max. ang.)         AngularGrid ... 2 (Lebedev-110)
Angular grid pruning method      GridPruning ... 4 (adaptive)
Weight generation scheme         WeightScheme... Becke
Basis function cutoff            BFCut       ... 1.0000e-11
Integration weight cutoff        WCut        ... 1.0000e-14
Angular grids for H and He will be reduced by one unit
Partially contracted basis set               ... on
Rotationally invariant grid construction     ... off

Total number of grid points                  ...     7962
Total number of batches                      ...      128
Average number of points per batch           ...       62
Average number of grid points per atom       ...     1327
UseSFitting                                  ... on

GRIDX 2
-------
General Integration Accuracy     IntAcc      ... 4.338
Radial Grid Type                 RadialGrid  ... OptM3 with GC (2021)
Angular Grid (max. ang.)         AngularGrid ... 3 (Lebedev-194)
Angular grid pruning method      GridPruning ... 4 (adaptive)
Weight generation scheme         WeightScheme... Becke
Basis function cutoff            BFCut       ... 1.0000e-11
Integration weight cutoff        WCut        ... 1.0000e-14
Angular grids for H and He will be reduced by one unit
Partially contracted basis set               ... on
Rotationally invariant grid construction     ... off

Total number of grid points                  ...    17592
Total number of batches                      ...      277
Average number of points per batch           ...       63
Average number of grid points per atom       ...     2932
UseSFitting                                  ... on

GRIDX 3
-------
General Integration Accuracy     IntAcc      ... 4.871
Radial Grid Type                 RadialGrid  ... OptM3 with GC (2021)
Angular Grid (max. ang.)         AngularGrid ... 4 (Lebedev-302)
Angular grid pruning method      GridPruning ... 4 (adaptive)
Weight generation scheme         WeightScheme... Becke
Basis function cutoff            BFCut       ... 1.0000e-11
Integration weight cutoff        WCut        ... 1.0000e-14
Angular grids for H and He will be reduced by one unit
Partially contracted basis set               ... on
Rotationally invariant grid construction     ... off

Total number of grid points                  ...    33874
Total number of batches                      ...      533
Average number of points per batch           ...       63
Average number of grid points per atom       ...     5646
UseSFitting                                  ... on

Time for X-Grid setup             =    3.585 sec

--------------
SCF ITERATIONS
--------------
ITER       Energy         Delta-E        Max-DP      RMS-DP      [F,P]     Damp
               ***  Starting incremental Fock matrix formation  ***
  0   -131.7516196292   0.000000000000 0.15117355  0.00801113  0.4160314 0.7000
  1   -131.9775896903  -0.225970061085 0.09268377  0.00512897  0.2566981 0.7000
                               ***Turning on DIIS***
  2   -132.0919675041  -0.114377813821 0.04406153  0.00301640  0.1864532 0.7000
  3   -132.1675318171  -0.075564312979 0.03336680  0.00210497  0.1333931 0.7000
  4   -132.2214019324  -0.053870115333 0.06626741  0.00464176  0.0921267 0.0000
  5   -132.3493138799  -0.127911947458 0.00772864  0.00055553  0.0079637 0.0000
  6   -132.3495721177  -0.000258237780 0.00311649  0.00023885  0.0052445 0.0000
                      *** Initiating the SOSCF procedure ***
                           *** Shutting down DIIS ***
                      *** Re-Reading the Fockian *** 
                      *** Removing any level shift *** 
ITER      Energy       Delta-E        Grad      Rot      Max-DP    RMS-DP
  7   -132.34966036  -0.0000882443  0.001327  0.001327  0.001640  0.000135
               *** Restarting incremental Fock matrix formation ***
  8   -132.34967186  -0.0000114931  0.000505  0.001283  0.001989  0.000108
  9   -132.34967590  -0.0000040405  0.000383  0.001499  0.001071  0.000082
 10   -132.34967725  -0.0000013500  0.000230  0.000511  0.000524  0.000034
 11   -132.34967772  -0.0000004768  0.000058  0.000097  0.000136  0.000009
 12   -132.34967774  -0.0000000164  0.000032  0.000080  0.000066  0.000005
                  ***Gradient check signals convergence***
              ***Rediagonalizing the Fockian in SOSCF/NRSCF***

               *****************************************************
               *                     SUCCESS                       *
               *           SCF CONVERGED AFTER  13 CYCLES          *
               *****************************************************

Old exchange energy                            =     -7.516921831 Eh
New exchange energy                            =     -7.516923447 Eh
Exchange energy change after final integration =     -0.000001616 Eh
Total energy after final integration           =   -132.349679373 Eh
Final COS-X integration done in                =     0.517 sec

----------------
TOTAL SCF ENERGY
----------------

Total Energy       :         -132.34967937 Eh           -3601.41787 eV

Components:
Nuclear Repulsion  :           60.55174304 Eh            1647.69670 eV
Electronic Energy  :         -192.90142242 Eh           -5249.11456 eV
One Electron Energy:         -297.34649686 Eh           -8091.20953 eV
Two Electron Energy:          104.44507444 Eh            2842.09496 eV
Max COSX asymmetry :            0.00000134 Eh               0.00004 eV

Virial components:
Potential Energy   :         -263.78299452 Eh           -7177.90020 eV
Kinetic Energy     :          131.43331515 Eh            3576.48233 eV
Virial Ratio       :            2.00697208


DFT components:
N(Alpha)           :       10.999999949512 electrons
N(Beta)            :       10.999999949512 electrons
N(Total)           :       21.999999899024 electrons
E(X)               :       -9.992501415759 Eh       
E(C)               :       -0.931942481072 Eh       
E(XC)              :      -10.924443896831 Eh       
DFET-embed. en.    :        0.000000000000 Eh       

---------------
SCF CONVERGENCE
---------------

  Last Energy change         ...   -1.8552e-08  Tolerance :   1.0000e-08
  Last MAX-Density change    ...    8.8818e-16  Tolerance :   1.0000e-07
  Last RMS-Density change    ...    4.3681e-17  Tolerance :   5.0000e-09
  Last Orbital Gradient      ...    1.7639e-06  Tolerance :   1.0000e-05
  Last Orbital Rotation      ...    3.4482e-06  Tolerance :   1.0000e-05

             **** THE GBW FILE WAS UPDATED (pbeh-3c.gbw) ****
             **** DENSITY pbeh-3c.scfp WAS UPDATED ****
             **** ENERGY FILE WAS UPDATED (pbeh-3c.en.tmp) ****
             **** THE GBW FILE WAS UPDATED (pbeh-3c.gbw) ****
             **** DENSITY pbeh-3c.scfp WAS UPDATED ****
----------------
ORBITAL ENERGIES
----------------

  NO   OCC          E(Eh)            E(eV) 
   0   2.0000     -14.681595      -399.5065 
   1   2.0000     -10.520971      -286.2902 
   2   2.0000     -10.485397      -285.3222 
   3   2.0000      -1.072420       -29.1820 
   4   2.0000      -0.806067       -21.9342 
   5   2.0000      -0.574980       -15.6460 
   6   2.0000      -0.534693       -14.5497 
   7   2.0000      -0.490175       -13.3383 
   8   2.0000      -0.448194       -12.1960 
   9   2.0000      -0.394633       -10.7385 
  10   2.0000      -0.358005        -9.7418 
  11   0.0000       0.016581         0.4512 
  12   0.0000       0.061539         1.6746 
  13   0.0000       0.094377         2.5681 
  14   0.0000       0.156403         4.2559 
  15   0.0000       0.197298         5.3687 
  16   0.0000       0.216591         5.8937 
  17   0.0000       0.328492         8.9387 
  18   0.0000       0.463791        12.6204 
  19   0.0000       0.491431        13.3725 
  20   0.0000       0.532482        14.4896 
  21   0.0000       0.567710        15.4482 
  22   0.0000       0.568331        15.4651 
  23   0.0000       0.712418        19.3859 
  24   0.0000       0.810443        22.0533 
  25   0.0000       0.859630        23.3917 
  26   0.0000       0.888098        24.1664 
  27   0.0000       0.930545        25.3214 
  28   0.0000       0.989546        26.9269 
  29   0.0000       1.000219        27.2173 
  30   0.0000       1.039813        28.2947 
  31   0.0000       1.173743        31.9392 
  32   0.0000       1.432743        38.9869 
  33   0.0000       1.456829        39.6423 
  34   0.0000       1.577870        42.9360 
  35   0.0000       1.595871        43.4259 
  36   0.0000       1.702252        46.3206 
  37   0.0000       1.734687        47.2032 
  38   0.0000       1.876708        51.0678 
  39   0.0000       2.030343        55.2484 
  40   0.0000       2.204504        59.9876 
  41   0.0000       2.288828        62.2822 
  42   0.0000       2.290928        62.3393 
  43   0.0000       2.399787        65.3015 
  44   0.0000       2.520715        68.5921 
  45   0.0000       2.637572        71.7720 
  46   0.0000       2.723172        74.1013 
  47   0.0000       2.900424        78.9245 
  48   0.0000      13.602130       370.1328 
  49   0.0000      13.696699       372.7061 
  50   0.0000      19.219707       522.9948 

                    ********************************
                    * MULLIKEN POPULATION ANALYSIS *
                    ********************************

-----------------------
MULLIKEN ATOMIC CHARGES
-----------------------
   0 C :   -0.657710
   1 C :    0.003384
   2 N :   -0.186417
   3 H :    0.280880
   4 H :    0.279931
   5 H :    0.279931
Sum of atomic charges:    0.0000000

--------------------------------
MULLIKEN REDUCED ORBITAL CHARGES
--------------------------------
  0 C s       :     3.448758  s :     3.448758
      pz      :     1.198680  p :     3.166272
      px      :     0.876647
      py      :     1.090944
      dz2     :     0.009321  d :     0.042680
      dxz     :     0.004023
      dyz     :     0.011165
      dx2y2   :     0.005819
      dxy     :     0.012351
  1 C s       :     3.651838  s :     3.651838
      pz      :     0.675284  p :     2.279864
      px      :     0.639271
      py      :     0.965308
      dz2     :     0.006261  d :     0.064914
      dxz     :     0.004765
      dyz     :     0.016133
      dx2y2   :     0.023175
      dxy     :     0.014581
  2 N s       :     3.718171  s :     3.718171
      pz      :     1.260687  p :     3.423109
      px      :     0.862472
      py      :     1.299950
      dz2     :     0.004192  d :     0.045136
      dxz     :     0.000970
      dyz     :     0.013239
      dx2y2   :     0.009926
      dxy     :     0.016810
  3 H s       :     0.719120  s :     0.719120
  4 H s       :     0.720069  s :     0.720069
  5 H s       :     0.720069  s :     0.720069


                     *******************************
                     * LOEWDIN POPULATION ANALYSIS *
                     *******************************

----------------------
LOEWDIN ATOMIC CHARGES
----------------------
   0 C :   -0.258999
   1 C :   -0.134421
   2 N :   -0.084468
   3 H :    0.159381
   4 H :    0.159253
   5 H :    0.159253

-------------------------------
LOEWDIN REDUCED ORBITAL CHARGES
-------------------------------
  0 C s       :     2.988933  s :     2.988933
      pz      :     1.172471  p :     3.199200
      px      :     0.933836
      py      :     1.092893
      dz2     :     0.014623  d :     0.070866
      dxz     :     0.006030
      dyz     :     0.018231
      dx2y2   :     0.010011
      dxy     :     0.021971
  1 C s       :     3.329634  s :     3.329634
      pz      :     0.698125  p :     2.687136
      px      :     0.794563
      py      :     1.194448
      dz2     :     0.013172  d :     0.117650
      dxz     :     0.006363
      dyz     :     0.026869
      dx2y2   :     0.044151
      dxy     :     0.027096
  2 N s       :     3.420029  s :     3.420029
      pz      :     1.234620  p :     3.592157
      px      :     0.905474
      py      :     1.452063
      dz2     :     0.008523  d :     0.072282
      dxz     :     0.001746
      dyz     :     0.015672
      dx2y2   :     0.018484
      dxy     :     0.027857
  3 H s       :     0.840619  s :     0.840619
  4 H s       :     0.840747  s :     0.840747
  5 H s       :     0.840747  s :     0.840747


                      *****************************
                      * MAYER POPULATION ANALYSIS *
                      *****************************

  NA   - Mulliken gross atomic population
  ZA   - Total nuclear charge
  QA   - Mulliken gross atomic charge
  VA   - Mayer's total valence
  BVA  - Mayer's bonded valence
  FA   - Mayer's free valence

  ATOM       NA         ZA         QA         VA         BVA        FA
  0 C      6.6577     6.0000    -0.6577     3.7014     3.7014    -0.0000
  1 C      5.9966     6.0000     0.0034     2.8424     2.8424     0.0000
  2 N      7.1864     7.0000    -0.1864     2.8107     2.8107     0.0000
  3 H      0.7191     1.0000     0.2809     0.8860     0.8860    -0.0000
  4 H      0.7201     1.0000     0.2799     0.8759     0.8759     0.0000
  5 H      0.7201     1.0000     0.2799     0.8759     0.8759     0.0000

  Mayer bond orders larger than 0.100000
B(  0-C ,  1-C ) :   0.5670 B(  0-C ,  2-N ) :   0.5147 B(  0-C ,  3-H ) :   0.8652 
B(  0-C ,  4-H ) :   0.8773 B(  0-C ,  5-H ) :   0.8773 B(  1-C ,  2-N ) :   2.2563 


-------
TIMINGS
-------

Total SCF time: 0 days 0 hours 1 min 11 sec 

Total time                  ....      71.808 sec
Sum of individual times     ....      61.435 sec  ( 85.6%)

Fock matrix formation       ....      49.196 sec  ( 68.5%)
  Split-RI-J                ....       8.012 sec  ( 16.3% of F)
  Chain of spheres X        ....       7.670 sec  ( 15.6% of F)
  XC integration            ....      14.947 sec  ( 30.4% of F)
    Basis function eval.    ....       0.852 sec  (  5.7% of XC)
    Density eval.           ....       0.656 sec  (  4.4% of XC)
    XC-Functional eval.     ....       0.707 sec  (  4.7% of XC)
    XC-Potential eval.      ....       0.224 sec  (  1.5% of XC)
Diagonalization             ....       1.792 sec  (  2.5%)
Density matrix formation    ....       0.119 sec  (  0.2%)
Population analysis         ....       0.504 sec  (  0.7%)
Initial guess               ....       0.013 sec  (  0.0%)
Orbital Transformation      ....       0.000 sec  (  0.0%)
Orbital Orthonormalization  ....       0.000 sec  (  0.0%)
DIIS solution               ....       3.439 sec  (  4.8%)
SOSCF solution              ....       0.963 sec  (  1.3%)
Grid generation             ....       5.409 sec  (  7.5%)

Maximum memory used throughout the entire SCF-calculation: 45.5 MB


-------------------------------------------------------------------------------
                          DFT DISPERSION CORRECTION                            
                                                                               
                              DFTD3 V3.1  Rev 1                                
                          USING Becke-Johnson damping                          
-------------------------------------------------------------------------------
The PBEh-3c composite method is recognized
Using three-body term ABC
Active option DFTDOPT                   ...         4   

molecular C6(AA) [au] = 376.883826 


            DFT-D V3
 parameters
 s6 scaling factor         :     1.0000 
 a1 scaling factor         :     0.4860 
 s8 scaling factor         :     0.0000 
 a2 scaling factor         :     4.5000 
 Damping factor alpha9(ATM):    16.0000 
 ad hoc parameters k1-k3   :    16.0000     1.3333    -4.0000 

 Edisp/kcal,au: -1.000914556520  -0.001595058706 
 E6   /kcal   :  -1.001039354 
 E8   /kcal   :  -0.000000000 
 E6(ABC)      :   0.000124798 
 % E8         :   0.000000000 
 % E6(ABC)    :  -0.012468388 

-------------------------   ----------------
Dispersion correction           -0.001595059
-------------------------   ----------------

------------------   -----------------
gCP correction             0.007073843
------------------   -----------------

-------------------------   --------------------
FINAL SINGLE POINT ENERGY      -132.344200589199
-------------------------   --------------------


                            ***************************************
                            *     ORCA property calculations      *
                            ***************************************

                                    ---------------------
                                    Active property flags
                                    ---------------------
   (+) Dipole Moment


------------------------------------------------------------------------------
                       ORCA ELECTRIC PROPERTIES CALCULATION
------------------------------------------------------------------------------

Dipole Moment Calculation                       ... on
Quadrupole Moment Calculation                   ... off
Polarizability Calculation                      ... off
GBWName                                         ... pbeh-3c.gbw
Electron density                                ... pbeh-3c.scfp
The origin for moment calculation is the CENTER OF MASS  = ( 1.112509,  0.522789  0.000000)

-------------
DIPOLE MOMENT
-------------
                                X             Y             Z
Electronic contribution:      2.56341       1.20662      -0.00000
Nuclear contribution   :     -3.54874      -1.56159       0.00000
                        -----------------------------------------
Total Dipole Moment    :     -0.98533      -0.35497      -0.00000
                        -----------------------------------------
Magnitude (a.u.)       :      1.04732
Magnitude (Debye)      :      2.66208



--------------------
Rotational spectrum 
--------------------
 
Rotational constants in cm-1:     1.384386     0.542926     0.421893 
Rotational constants in MHz : 41502.844899 16276.515011 12648.034955 

 Dipole components along the rotational axes: 
x,y,z [a.u.] :     1.036498     0.150183    -0.000000 
x,y,z [Debye]:     2.634569     0.381734    -0.000000 

 

Timings for individual modules:

Sum of individual times         ...       77.151 sec (=   1.286 min)
GTO integral calculation        ...        4.331 sec (=   0.072 min)   5.6 %
SCF iterations                  ...       72.820 sec (=   1.214 min)  94.4 %
                             ****ORCA TERMINATED NORMALLY****
TOTAL RUN TIME: 0 days 0 hours 1 minutes 19 seconds 742 msec
