
                                 *****************
                                 * O   R   C   A *
                                 *****************

                                            #,                                       
                                            ###                                      
                                            ####                                     
                                            #####                                    
                                            ######                                   
                                           ########,                                 
                                     ,,################,,,,,                         
                               ,,#################################,,                 
                          ,,##########################################,,             
                       ,#########################################, ''#####,          
                    ,#############################################,,   '####,        
                  ,##################################################,,,,####,       
                ,###########''''           ''''###############################       
              ,#####''   ,,,,##########,,,,          '''####'''          '####       
            ,##' ,,,,###########################,,,                        '##       
           ' ,,###''''                  '''############,,,                           
         ,,##''                                '''############,,,,        ,,,,,,###''
      ,#''                                            '''#######################'''  
     '                                                          ''''####''''         
             ,#######,   #######,   ,#######,      ##                                
            ,#'     '#,  ##    ##  ,#'     '#,    #''#        ######   ,####,        
            ##       ##  ##   ,#'  ##            #'  '#       #        #'  '#        
            ##       ##  #######   ##           ,######,      #####,   #    #        
            '#,     ,#'  ##    ##  '#,     ,#' ,#      #,         ##   #,  ,#        
             '#######'   ##     ##  '#######'  #'      '#     #####' # '####'        



                  #######################################################
                  #                        -***-                        #
                  #          Department of theory and spectroscopy      #
                  #    Directorship and core code : Frank Neese         #
                  #        Max Planck Institute fuer Kohlenforschung    #
                  #                Kaiser Wilhelm Platz 1               #
                  #                 D-45470 Muelheim/Ruhr               #
                  #                      Germany                        #
                  #                                                     #
                  #                  All rights reserved                #
                  #                        -***-                        #
                  #######################################################


                         Program Version 5.0.3 -  RELEASE  -


 With contributions from (in alphabetic order):
   Daniel Aravena         : Magnetic Suceptibility
   Michael Atanasov       : Ab Initio Ligand Field Theory (pilot matlab implementation)
   Alexander A. Auer      : GIAO ZORA, VPT2 properties, NMR spectrum
   Ute Becker             : Parallelization
   Giovanni Bistoni       : ED, misc. LED, open-shell LED, HFLD
   Martin Brehm           : Molecular dynamics
   Dmytro Bykov           : SCF Hessian
   Vijay G. Chilkuri      : MRCI spin determinant printing, contributions to CSF-ICE
   Dipayan Datta          : RHF DLPNO-CCSD density
   Achintya Kumar Dutta   : EOM-CC, STEOM-CC
   Dmitry Ganyushin       : Spin-Orbit,Spin-Spin,Magnetic field MRCI
   Miquel Garcia          : C-PCM and meta-GGA Hessian, CC/C-PCM, Gaussian charge scheme
   Yang Guo               : DLPNO-NEVPT2, F12-NEVPT2, CIM, IAO-localization
   Andreas Hansen         : Spin unrestricted coupled pair/coupled cluster methods
   Benjamin Helmich-Paris : MC-RPA, TRAH-SCF, COSX integrals
   Lee Huntington         : MR-EOM, pCC
   Robert Izsak           : Overlap fitted RIJCOSX, COSX-SCS-MP3, EOM
   Marcus Kettner         : VPT2
   Christian Kollmar      : KDIIS, OOCD, Brueckner-CCSD(T), CCSD density, CASPT2, CASPT2-K
   Simone Kossmann        : Meta GGA functionals, TD-DFT gradient, OOMP2, MP2 Hessian
   Martin Krupicka        : Initial AUTO-CI
   Lucas Lang             : DCDCAS
   Marvin Lechner         : AUTO-CI (C++ implementation), FIC-MRCC
   Dagmar Lenk            : GEPOL surface, SMD
   Dimitrios Liakos       : Extrapolation schemes; Compound Job, initial MDCI parallelization
   Dimitrios Manganas     : Further ROCIS development; embedding schemes
   Dimitrios Pantazis     : SARC Basis sets
   Anastasios Papadopoulos: AUTO-CI, single reference methods and gradients
   Taras Petrenko         : DFT Hessian,TD-DFT gradient, ASA, ECA, R-Raman, ABS, FL, XAS/XES, NRVS
   Peter Pinski           : DLPNO-MP2, DLPNO-MP2 Gradient
   Christoph Reimann      : Effective Core Potentials
   Marius Retegan         : Local ZFS, SOC
   Christoph Riplinger    : Optimizer, TS searches, QM/MM, DLPNO-CCSD(T), (RO)-DLPNO pert. Triples
   Tobias Risthaus        : Range-separated hybrids, TD-DFT gradient, RPA, STAB
   Michael Roemelt        : Original ROCIS implementation
   Masaaki Saitow         : Open-shell DLPNO-CCSD energy and density
   Barbara Sandhoefer     : DKH picture change effects
   Avijit Sen             : IP-ROCIS
   Kantharuban Sivalingam : CASSCF convergence, NEVPT2, FIC-MRCI
   Bernardo de Souza      : ESD, SOC TD-DFT
   Georgi Stoychev        : AutoAux, RI-MP2 NMR, DLPNO-MP2 response
   Willem Van den Heuvel  : Paramagnetic NMR
   Boris Wezisla          : Elementary symmetry handling
   Frank Wennmohs         : Technical directorship


 We gratefully acknowledge several colleagues who have allowed us to
 interface, adapt or use parts of their codes:
   Stefan Grimme, W. Hujo, H. Kruse, P. Pracht,  : VdW corrections, initial TS optimization,
                  C. Bannwarth, S. Ehlert          DFT functionals, gCP, sTDA/sTD-DF
   Ed Valeev, F. Pavosevic, A. Kumar             : LibInt (2-el integral package), F12 methods
   Garnet Chan, S. Sharma, J. Yang, R. Olivares  : DMRG
   Ulf Ekstrom                                   : XCFun DFT Library
   Mihaly Kallay                                 : mrcc  (arbitrary order and MRCC methods)
   Jiri Pittner, Ondrej Demel                    : Mk-CCSD
   Frank Weinhold                                : gennbo (NPA and NBO analysis)
   Christopher J. Cramer and Donald G. Truhlar   : smd solvation model
   Lars Goerigk                                  : TD-DFT with DH, B97 family of functionals
   V. Asgeirsson, H. Jonsson                     : NEB implementation
   FAccTs GmbH                                   : IRC, NEB, NEB-TS, DLPNO-Multilevel, CI-OPT
                                                   MM, QMMM, 2- and 3-layer-ONIOM, Crystal-QMMM,
                                                   LR-CPCM, SF, NACMEs, symmetry and pop. for TD-DFT,
                                                   nearIR, NL-DFT gradient (VV10), updates on ESD,
                                                   ML-optimized integration grids
   S Lehtola, MJT Oliveira, MAL Marques          : LibXC Library
   Liviu Ungur et al                             : ANISO software


 Your calculation uses the libint2 library for the computation of 2-el integrals
 For citations please refer to: http://libint.valeyev.net

 Your ORCA version has been built with support for libXC version: 5.1.0
 For citations please refer to: https://tddft.org/programs/libxc/

 This ORCA versions uses:
   CBLAS   interface :  Fast vector & matrix operations
   LAPACKE interface :  Fast linear algebra routines
   SCALAPACK package :  Parallel linear algebra routines
   Shared memory     :  Shared parallel matrices
   BLAS/LAPACK       :  OpenBLAS 0.3.15  USE64BITINT DYNAMIC_ARCH NO_AFFINITY Haswell SINGLE_THREADED
        Core in use  :  Haswell
   Copyright (c) 2011-2014, The OpenBLAS Project




***************************************
The coordinates will be read from file: 8.xyz
***************************************


Your calculation utilizes the geometrical counterpoise correction gCP
Please cite in your paper:
H.Kruse, S. Grimme J.Chem.Phys., 136, (2012), 154101 
   

Your calculation utilizes the atom-pairwise dispersion correction
with the Becke-Johnson damping scheme (D3BJ)
Cite in your paper:
S.Grimme, S.Ehrlich, L.Goerigk, J Comput Chem, (2011), 32, 1456–1465 
S.Grimme, J.Antony, S.Ehrlich and H.Krieg, J.Chem.Phys., 132, (2010), 154104 
   

Your calculation employs the composite approach PBEh-3c.
Please cite in your paper:
S. Grimme, J. G. Brandenburg, C. Bannwarth, A. Hansen J.Chem.Phys., 143, (2015), 054107 
   

================================================================================

----- Orbital basis set information -----
Your calculation utilizes the basis: def2-mSVP

----- AuxJ basis set information -----
Your calculation utilizes the auxiliary basis: def2/J
   F. Weigend, Phys. Chem. Chem. Phys. 8, 1057 (2006).

================================================================================
                                        WARNINGS
                       Please study these warnings very carefully!
================================================================================


INFO   : the flag for use of the SHARK integral package has been found!

================================================================================
                                       INPUT FILE
================================================================================
NAME = pbeh-3c.inp
|  1> ! PBEh-3c def2/J TightSCF DefGrid3
|  2> 
|  3> %maxcore 60000
|  4> 
|  5> %pal
|  6> nprocs 4
|  7> end
|  8> 
|  9> *xyzfile 0 1 8.xyz
| 10> 
| 11>                          ****END OF INPUT****
================================================================================

                       ****************************
                       * Single Point Calculation *
                       ****************************

---------------------------------
CARTESIAN COORDINATES (ANGSTROEM)
---------------------------------
  N     -0.862170    2.619596    0.660609
  C     -1.876029    2.180997   -0.162084
  C     -1.438589    1.128704   -0.932352
  C     -0.072054    0.899157   -0.557014
  C      0.902470   -0.019000   -0.977847
  C      2.156352    0.002713   -0.379950
  C      2.460025    0.938428    0.634990
  C      1.512459    1.867584    1.053214
  C      0.252725    1.841157    0.453638
  H     -0.954030    3.335121    1.357803
  H     -2.850614    2.639584   -0.119812
  H      0.711539   -0.742783   -1.759788
  H      3.434564    0.949471    1.097878
  H      1.757655    2.582842    1.827784
  O      3.048835   -0.935439   -0.838915
  C      4.346636   -0.919148   -0.269982
  H      4.316786   -1.119544    0.803386
  H      4.848838    0.034659   -0.445837
  H      4.898881   -1.711721   -0.766208
  C     -2.265196    0.271424   -1.839512
  C     -2.969474   -0.856071   -1.060053
  N     -2.053953   -1.615692   -0.226787
  C     -1.867268   -1.300909    1.095519
  C     -0.647456   -1.933994    1.731930
  H     -1.629998   -0.163152   -2.616002
  H     -3.026226    0.864182   -2.352474
  H     -3.477203   -1.531969   -1.750658
  H     -3.710014   -0.431738   -0.385791
  H     -1.297702   -2.097888   -0.681914
  O     -2.620614   -0.567539    1.718730
  H      0.167759   -1.209612    1.699476
  H     -0.326353   -2.838468    1.217135
  H     -0.870578   -2.160954    2.770882

----------------------------
CARTESIAN COORDINATES (A.U.)
----------------------------
  NO LB      ZA    FRAG     MASS         X           Y           Z
   0 N     7.0000    0    14.007   -1.629266    4.950319    1.248370
   1 C     6.0000    0    12.011   -3.545182    4.121487   -0.306294
   2 C     6.0000    0    12.011   -2.718540    2.132941   -1.761890
   3 C     6.0000    0    12.011   -0.136163    1.699160   -1.052604
   4 C     6.0000    0    12.011    1.705422   -0.035905   -1.847862
   5 C     6.0000    0    12.011    4.074915    0.005127   -0.718001
   6 C     6.0000    0    12.011    4.648774    1.773372    1.199957
   7 C     6.0000    0    12.011    2.858134    3.529222    1.990286
   8 C     6.0000    0    12.011    0.477582    3.479282    0.857252
   9 H     1.0000    0     1.008   -1.802856    6.302465    2.565876
  10 H     1.0000    0     1.008   -5.386880    4.988091   -0.226411
  11 H     1.0000    0     1.008    1.344615   -1.403656   -3.325517
  12 H     1.0000    0     1.008    6.490386    1.794240    2.074689
  13 H     1.0000    0     1.008    3.321487    4.880864    3.454011
  14 O     8.0000    0    15.999    5.761464   -1.767723   -1.585319
  15 C     6.0000    0    12.011    8.213952   -1.736938   -0.510192
  16 H     1.0000    0     1.008    8.157544   -2.115631    1.518180
  17 H     1.0000    0     1.008    9.162976    0.065496   -0.842509
  18 H     1.0000    0     1.008    9.257544   -3.234684   -1.447923
  19 C     6.0000    0    12.011   -4.280601    0.512917   -3.476173
  20 C     6.0000    0    12.011   -5.611493   -1.617740   -2.003209
  21 N     7.0000    0    14.007   -3.881409   -3.053215   -0.428565
  22 C     6.0000    0    12.011   -3.528626   -2.458361    2.070231
  23 C     6.0000    0    12.011   -1.223515   -3.654719    3.272874
  24 H     1.0000    0     1.008   -3.080251   -0.308312   -4.943527
  25 H     1.0000    0     1.008   -5.718739    1.633067   -4.445531
  26 H     1.0000    0     1.008   -6.570962   -2.895001   -3.308264
  27 H     1.0000    0     1.008   -7.010911   -0.815866   -0.729039
  28 H     1.0000    0     1.008   -2.452302   -3.964433   -1.288630
  29 O     8.0000    0    15.999   -4.952243   -1.072493    3.247929
  30 H     1.0000    0     1.008    0.317018   -2.285835    3.211544
  31 H     1.0000    0     1.008   -0.616719   -5.363927    2.300052
  32 H     1.0000    0     1.008   -1.645155   -4.083611    5.236208

--------------------------------
INTERNAL COORDINATES (ANGSTROEM)
--------------------------------
 N      0   0   0     0.000000000000     0.00000000     0.00000000
 C      1   0   0     1.377353535732     0.00000000     0.00000000
 C      2   1   0     1.375495144599   110.12087096     0.00000000
 C      3   2   1     1.435614179496   106.17880850     0.30285465
 C      4   3   2     1.403499696603   133.40494441   180.08622746
 C      5   4   3     1.389306293280   119.17023022   181.37982016
 C      6   5   4     1.413464751909   120.88155083   359.64057725
 C      7   6   5     1.391446418488   120.76885352   359.52864252
 C      1   2   3     1.375426166466   109.06011821   359.03341674
 H      1   2   3     1.003241554042   125.08576976   184.31140305
 H      2   1   3     1.077916826968   120.43958588   178.45749213
 H      5   4   3     1.082473189197   122.10971052     1.74862915
 H      7   6   5     1.078940920956   120.58981470   179.84427195
 H      8   7   6     1.082438806529   120.13682684   180.31394750
 O      6   5   4     1.373791750274   115.58661519   179.40838419
 C     15   6   5     1.417122906177   116.93456011   178.60845219
 H     16  15   6     1.092322401156   111.55343582    62.16509404
 H     16  15   6     1.092190287028   111.49952814   299.61195311
 H     16  15   6     1.085995665238   105.89429380   180.86870776
 C      3   2   1     1.497046108073   127.00103568   172.63949456
 C     20   3   2     1.541041395775   111.39657328   276.82902835
 N     21  20   3     1.452423723732   112.62875336   308.63451913
 C     22  21  20     1.372017668309   121.24477654    94.20436940
 C     23  22  21     1.514515398895   114.75047065   194.92716500
 H     20   3   2     1.093283654788   109.70640628   155.40868700
 H     20   3   2     1.092546896434   111.00403336    37.76572308
 H     21  20   3     1.091586860101   110.21820316   186.14177569
 H     21  20   3     1.087698004123   109.83211366    66.66853439
 H     22  21  20     1.005767862032   117.71622165   299.36544917
 O     23  22  21     1.222192049473   123.04080322    14.89022079
 H     24  23  22     1.091035165495   108.16571336    96.30761890
 H     24  23  22     1.089125337229   112.70459110   336.37599135
 H     24  23  22     1.086607251493   108.88722995   214.26520353

---------------------------
INTERNAL COORDINATES (A.U.)
---------------------------
 N      0   0   0     0.000000000000     0.00000000     0.00000000
 C      1   0   0     2.602820972121     0.00000000     0.00000000
 C      2   1   0     2.599309121830   110.12087096     0.00000000
 C      3   2   1     2.712917633222   106.17880850     0.30285465
 C      4   3   2     2.652230055621   133.40494441   180.08622746
 C      5   4   3     2.625408410432   119.17023022   181.37982016
 C      6   5   4     2.671061281058   120.88155083   359.64057725
 C      7   6   5     2.629452660968   120.76885352   359.52864252
 C      1   2   3     2.599178772050   109.06011821   359.03341674
 H      1   2   3     1.895851783308   125.08576976   184.31140305
 H      2   1   3     2.036967598115   120.43958588   178.45749213
 H      5   4   3     2.045577874895   122.10971052     1.74862915
 H      7   6   5     2.038902855288   120.58981470   179.84427195
 H      8   7   6     2.045512901068   120.13682684   180.31394750
 O      6   5   4     2.596090173059   115.58661519   179.40838419
 C     15   6   5     2.677974190781   116.93456011   178.60845219
 H     16  15   6     2.064190188131   111.55343582    62.16509404
 H     16  15   6     2.063940528612   111.49952814   299.61195311
 H     16  15   6     2.052234389925   105.89429380   180.86870776
 C      3   2   1     2.829007154110   127.00103568   172.63949456
 C     20   3   2     2.912146199050   111.39657328   276.82902835
 N     21  20   3     2.744683068264   112.62875336   308.63451913
 C     22  21  20     2.592737644005   121.24477654    94.20436940
 C     23  22  21     2.862019329518   114.75047065   194.92716500
 H     20   3   2     2.066006694242   109.70640628   155.40868700
 H     20   3   2     2.064614422726   111.00403336    37.76572308
 H     21  20   3     2.062800216977   110.21820316   186.14177569
 H     21  20   3     2.055451344205   109.83211366    66.66853439
 H     22  21  20     1.900625813539   117.71622165   299.36544917
 O     23  22  21     2.309608256559   123.04080322    14.89022079
 H     24  23  22     2.061757665262   108.16571336    96.30761890
 H     24  23  22     2.058148612878   112.70459110   336.37599135
 H     24  23  22     2.053390120455   108.88722995   214.26520353

---------------------
BASIS SET INFORMATION
---------------------
There are 4 groups of distinct atoms

 Group   1 Type N   : 8s4p1d contracted to 4s2p1d pattern {5111/31/1}
 Group   2 Type C   : 8s4p1d contracted to 4s2p1d pattern {5111/31/1}
 Group   3 Type H   : 4s contracted to 2s pattern {31}
 Group   4 Type O   : 8s4p1d contracted to 4s2p1d pattern {5111/31/1}

Atom   0N    basis set group =>   1
Atom   1C    basis set group =>   2
Atom   2C    basis set group =>   2
Atom   3C    basis set group =>   2
Atom   4C    basis set group =>   2
Atom   5C    basis set group =>   2
Atom   6C    basis set group =>   2
Atom   7C    basis set group =>   2
Atom   8C    basis set group =>   2
Atom   9H    basis set group =>   3
Atom  10H    basis set group =>   3
Atom  11H    basis set group =>   3
Atom  12H    basis set group =>   3
Atom  13H    basis set group =>   3
Atom  14O    basis set group =>   4
Atom  15C    basis set group =>   2
Atom  16H    basis set group =>   3
Atom  17H    basis set group =>   3
Atom  18H    basis set group =>   3
Atom  19C    basis set group =>   2
Atom  20C    basis set group =>   2
Atom  21N    basis set group =>   1
Atom  22C    basis set group =>   2
Atom  23C    basis set group =>   2
Atom  24H    basis set group =>   3
Atom  25H    basis set group =>   3
Atom  26H    basis set group =>   3
Atom  27H    basis set group =>   3
Atom  28H    basis set group =>   3
Atom  29O    basis set group =>   4
Atom  30H    basis set group =>   3
Atom  31H    basis set group =>   3
Atom  32H    basis set group =>   3
---------------------------------
AUXILIARY/J BASIS SET INFORMATION
---------------------------------
There are 4 groups of distinct atoms

 Group   1 Type N   : 12s5p4d2f1g contracted to 6s4p3d1f1g pattern {711111/2111/211/2/1}
 Group   2 Type C   : 12s5p4d2f1g contracted to 6s4p3d1f1g pattern {711111/2111/211/2/1}
 Group   3 Type H   : 5s2p1d contracted to 3s1p1d pattern {311/2/1}
 Group   4 Type O   : 12s5p4d2f1g contracted to 6s4p3d1f1g pattern {711111/2111/211/2/1}

Atom   0N    basis set group =>   1
Atom   1C    basis set group =>   2
Atom   2C    basis set group =>   2
Atom   3C    basis set group =>   2
Atom   4C    basis set group =>   2
Atom   5C    basis set group =>   2
Atom   6C    basis set group =>   2
Atom   7C    basis set group =>   2
Atom   8C    basis set group =>   2
Atom   9H    basis set group =>   3
Atom  10H    basis set group =>   3
Atom  11H    basis set group =>   3
Atom  12H    basis set group =>   3
Atom  13H    basis set group =>   3
Atom  14O    basis set group =>   4
Atom  15C    basis set group =>   2
Atom  16H    basis set group =>   3
Atom  17H    basis set group =>   3
Atom  18H    basis set group =>   3
Atom  19C    basis set group =>   2
Atom  20C    basis set group =>   2
Atom  21N    basis set group =>   1
Atom  22C    basis set group =>   2
Atom  23C    basis set group =>   2
Atom  24H    basis set group =>   3
Atom  25H    basis set group =>   3
Atom  26H    basis set group =>   3
Atom  27H    basis set group =>   3
Atom  28H    basis set group =>   3
Atom  29O    basis set group =>   4
Atom  30H    basis set group =>   3
Atom  31H    basis set group =>   3
Atom  32H    basis set group =>   3


           ************************************************************
           *        Program running with 4 parallel MPI-processes     *
           *              working on a common directory               *
           ************************************************************
------------------------------------------------------------------------------
                           ORCA GTO INTEGRAL CALCULATION
                           -- RI-GTO INTEGRALS CHOSEN --
------------------------------------------------------------------------------
------------------------------------------------------------------------------
                   ___                                                        
                  /   \      - P O W E R E D   B Y -                         
                 /     \                                                     
                 |  |  |   _    _      __       _____    __    __             
                 |  |  |  | |  | |    /  \     |  _  \  |  |  /  |          
                  \  \/   | |  | |   /    \    | | | |  |  | /  /          
                 / \  \   | |__| |  /  /\  \   | |_| |  |  |/  /          
                |  |  |   |  __  | /  /__\  \  |    /   |      \           
                |  |  |   | |  | | |   __   |  |    \   |  |\   \          
                \     /   | |  | | |  |  |  |  | |\  \  |  | \   \       
                 \___/    |_|  |_| |__|  |__|  |_| \__\ |__|  \__/        
                                                                              
                      - O R C A' S   B I G   F R I E N D -                    
                                      &                                       
                       - I N T E G R A L  F E E D E R -                       
                                                                              
 v1 FN, 2020, v2 2021                                                         
------------------------------------------------------------------------------


Reading SHARK input file pbeh-3c.SHARKINP.tmp ... ok
----------------------
SHARK INTEGRAL PACKAGE
----------------------

Number of atoms                             ...     33
Number of basis functions                   ...    287
Number of shells                            ...    151
Maximum angular momentum                    ...      2
Integral batch strategy                     ... SHARK/LIBINT Hybrid
RI-J (if used) integral strategy            ... SPLIT-RIJ (Revised 2003 algorithm where possible)
Printlevel                                  ...      1
Contraction scheme used                     ... SEGMENTED contraction
Coulomb Range Separation                    ... NOT USED
Exchange Range Separation                   ... NOT USED
Finite Nucleus Model                        ... NOT USED
Auxiliary Coulomb fitting basis             ... AVAILABLE
   # of basis functions in Aux-J            ...   1009
   # of shells in Aux-J                     ...    335
   Maximum angular momentum in Aux-J        ...      4
Auxiliary J/K fitting basis                 ... NOT available
Auxiliary Correlation fitting basis         ... NOT available
Auxiliary 'external' fitting basis          ... NOT available
Integral threshold                          ...     2.500000e-11
Primitive cut-off                           ...     2.500000e-12
Primitive pair pre-selection threshold      ...     2.500000e-12

Calculating pre-screening integrals         ... done (  0.0 sec) Dimension = 151
Organizing shell pair data                  ... done (  0.3 sec)
Shell pair information
Total number of shell pairs                 ...     11476
Shell pairs after pre-screening             ...      8913
Total number of primitive shell pairs       ...     41024
Primitive shell pairs kept                  ...     20454
          la=0 lb=0:   3526 shell pairs
          la=1 lb=0:   2960 shell pairs
          la=1 lb=1:    569 shell pairs
          la=2 lb=0:   1208 shell pairs
          la=2 lb=1:    526 shell pairs
          la=2 lb=2:    124 shell pairs

Calculating one electron integrals          ... done (  0.1 sec)
Calculating RI/J V-Matrix + Cholesky decomp.... done (  0.9 sec)
Calculating Nuclear repulsion               ... done (  0.0 sec) ENN=   1236.651406151971 Eh

SHARK setup successfully completed in   2.5 seconds

Maximum memory used throughout the entire GTOINT-calculation: 18.6 MB


           ************************************************************
           *        Program running with 4 parallel MPI-processes     *
           *              working on a common directory               *
           ************************************************************
-------------------------------------------------------------------------------
                                 ORCA SCF
-------------------------------------------------------------------------------

------------
SCF SETTINGS
------------
Hamiltonian:
 Density Functional     Method          .... DFT(GTOs)
 Exchange Functional    Exchange        .... PBE
   PBE kappa parameter   XKappa         ....  1.024500
   PBE mue parameter    XMuePBE         ....  0.123457
 Correlation Functional Correlation     .... PBE
   PBE beta parameter  CBetaPBE         ....  0.030000
 LDA part of GGA corr.  LDAOpt          .... PW91-LDA
 Gradients option       PostSCFGGA      .... off
 Hybrid DFT is turned on
   Fraction HF Exchange ScalHFX         ....  0.420000
   Scaling of DF-GGA-X  ScalDFX         ....  0.580000
   Scaling of DF-GGA-C  ScalDFC         ....  1.000000
   Scaling of DF-LDA-C  ScalLDAC        ....  1.000000
   Perturbative correction              ....  0.000000
   Density functional embedding theory  .... OFF
 RI-approximation to the Coulomb term is turned on
   Number of AuxJ basis functions       .... 1009
   RIJ-ON(X) (HFX calculated with O(N)) .... on
   Number of AuxJ basis functions       .... 1009
   RIJ-COSX (HFX calculated with COS-X)).... on


General Settings:
 Integral files         IntName         .... pbeh-3c
 Hartree-Fock type      HFTyp           .... RHF
 Total Charge           Charge          ....    0
 Multiplicity           Mult            ....    1
 Number of Electrons    NEL             ....  124
 Basis Dimension        Dim             ....  287
 Nuclear Repulsion      ENuc            ....   1236.6514061520 Eh

Convergence Acceleration:
 DIIS                   CNVDIIS         .... on
   Start iteration      DIISMaxIt       ....    12
   Startup error        DIISStart       ....  0.200000
   # of expansion vecs  DIISMaxEq       ....     5
   Bias factor          DIISBfac        ....   1.050
   Max. coefficient     DIISMaxC        ....  10.000
 Trust-Rad. Augm. Hess. CNVTRAH         .... auto
   Auto Start mean grad. ratio tolernc. ....  1.125000
   Auto Start start iteration           ....    20
   Auto Start num. interpolation iter.  ....    10
   Max. Number of Micro iterations      ....    16
   Max. Number of Macro iterations      .... Maxiter - #DIIS iter
   Number of Davidson start vectors     ....     2
   Converg. threshold I  (grad. norm)   ....   1.000e-05
   Converg. threshold II (energy diff.) ....   1.000e-08
   Grad. Scal. Fac. for Micro threshold ....   0.100
   Minimum threshold for Micro iter.    ....   0.010
   NR start threshold (gradient norm)   ....   0.001
   Initial trust radius                 ....   0.400
   Minimum AH scaling param. (alpha)    ....   1.000
   Maximum AH scaling param. (alpha)    .... 1000.000
   Orbital update algorithm             .... Taylor
   White noise on init. David. guess    .... on
   Maximum white noise                  ....   0.010
   Quad. conv. algorithm                .... NR
   COSX micro iterations for RIJONX calc.... off
 SOSCF                  CNVSOSCF        .... on
   Start iteration      SOSCFMaxIt      ....   150
   Startup grad/error   SOSCFStart      ....  0.003300
 Level Shifting         CNVShift        .... on
   Level shift para.    LevelShift      ....    0.2500
   Turn off err/grad.   ShiftErr        ....    0.0010
 Zerner damping         CNVZerner       .... off
 Static damping         CNVDamp         .... on
   Fraction old density DampFac         ....    0.7000
   Max. Damping (<1)    DampMax         ....    0.9800
   Min. Damping (>=0)   DampMin         ....    0.0000
   Turn off err/grad.   DampErr         ....    0.1000
 Fernandez-Rico         CNVRico         .... off

SCF Procedure:
 Maximum # iterations   MaxIter         ....   125
 SCF integral mode      SCFMode         .... Direct
   Integral package                     .... SHARK and LIBINT hybrid scheme
 Reset frequency        DirectResetFreq ....    20
 Integral Threshold     Thresh          ....  2.500e-11 Eh
 Primitive CutOff       TCut            ....  2.500e-12 Eh

Convergence Tolerance:
 Convergence Check Mode ConvCheckMode   .... Total+1el-Energy
 Convergence forced     ConvForced      .... 0
 Energy Change          TolE            ....  1.000e-08 Eh
 1-El. energy change                    ....  1.000e-05 Eh
 Orbital Gradient       TolG            ....  1.000e-05
 Orbital Rotation angle TolX            ....  1.000e-05
 DIIS Error             TolErr          ....  5.000e-07


Diagonalization of the overlap matrix:
Smallest eigenvalue                        ... 3.976e-04
Time for diagonalization                   ...    0.042 sec
Threshold for overlap eigenvalues          ... 1.000e-08
Number of eigenvalues below threshold      ... 0
Time for construction of square roots      ...    0.104 sec
Total time needed                          ...    0.146 sec

--------------------------------
INITIAL GUESS: MINIMAL BASIS EHT
--------------------------------
The minimal basis has 101 functions
EHT matrix was diagonalized
Basis set overlap was calculated now projecting the orbitals
Using GuessMode=FMatrix for the initial guess
C*T matrix was formed
Effective Fockian was calculated
Effective Fockian was diagonalized
Initial density was built
                      ------------------
                      INITIAL GUESS DONE
                      ------------------
-------------------
DFT GRID GENERATION
-------------------

General Integration Accuracy     IntAcc      ... 4.959
Radial Grid Type                 RadialGrid  ... OptM3 with GC (2021)
Angular Grid (max. ang.)         AngularGrid ... 6 (Lebedev-590)
Angular grid pruning method      GridPruning ... 4 (adaptive)
Weight generation scheme         WeightScheme... Becke
Basis function cutoff            BFCut       ... 1.0000e-11
Integration weight cutoff        WCut        ... 1.0000e-14
Angular grids for H and He will be reduced by one unit
Partially contracted basis set               ... off
Rotationally invariant grid construction     ... off

Total number of grid points                  ...   377832
Total number of batches                      ...     5925
Average number of points per batch           ...       63
Average number of grid points per atom       ...    11449
Time for grid setup =    8.550 sec

--------------------
COSX GRID GENERATION
--------------------

GRIDX 1
-------
General Integration Accuracy     IntAcc      ... 4.020
Radial Grid Type                 RadialGrid  ... OptM3 with GC (2021)
Angular Grid (max. ang.)         AngularGrid ... 2 (Lebedev-110)
Angular grid pruning method      GridPruning ... 4 (adaptive)
Weight generation scheme         WeightScheme... Becke
Basis function cutoff            BFCut       ... 1.0000e-11
Integration weight cutoff        WCut        ... 1.0000e-14
Angular grids for H and He will be reduced by one unit
Partially contracted basis set               ... on
Rotationally invariant grid construction     ... off

Total number of grid points                  ...    41647
Total number of batches                      ...      669
Average number of points per batch           ...       62
Average number of grid points per atom       ...     1262
UseSFitting                                  ... on

GRIDX 2
-------
General Integration Accuracy     IntAcc      ... 4.338
Radial Grid Type                 RadialGrid  ... OptM3 with GC (2021)
Angular Grid (max. ang.)         AngularGrid ... 3 (Lebedev-194)
Angular grid pruning method      GridPruning ... 4 (adaptive)
Weight generation scheme         WeightScheme... Becke
Basis function cutoff            BFCut       ... 1.0000e-11
Integration weight cutoff        WCut        ... 1.0000e-14
Angular grids for H and He will be reduced by one unit
Partially contracted basis set               ... on
Rotationally invariant grid construction     ... off

Total number of grid points                  ...    91045
Total number of batches                      ...     1438
Average number of points per batch           ...       63
Average number of grid points per atom       ...     2759
UseSFitting                                  ... on

GRIDX 3
-------
General Integration Accuracy     IntAcc      ... 4.871
Radial Grid Type                 RadialGrid  ... OptM3 with GC (2021)
Angular Grid (max. ang.)         AngularGrid ... 4 (Lebedev-302)
Angular grid pruning method      GridPruning ... 4 (adaptive)
Weight generation scheme         WeightScheme... Becke
Basis function cutoff            BFCut       ... 1.0000e-11
Integration weight cutoff        WCut        ... 1.0000e-14
Angular grids for H and He will be reduced by one unit
Partially contracted basis set               ... on
Rotationally invariant grid construction     ... off

Total number of grid points                  ...   172222
Total number of batches                      ...     2709
Average number of points per batch           ...       63
Average number of grid points per atom       ...     5219
UseSFitting                                  ... on

Time for X-Grid setup             =    7.022 sec

--------------
SCF ITERATIONS
--------------
ITER       Energy         Delta-E        Max-DP      RMS-DP      [F,P]     Damp
               ***  Starting incremental Fock matrix formation  ***
  0   -761.2804706946   0.000000000000 0.18772943  0.00461734  0.5503762 0.7000
  1   -761.9870591679  -0.706588473308 0.09937161  0.00300368  0.2938519 0.7000
  2   -762.3903013902  -0.403242222266 0.07005539  0.00200464  0.2058075 0.7000
                               ***Turning on DIIS***
  3   -762.6747092285  -0.284407838375 0.05005117  0.00142321  0.1443878 0.7000
  4   -762.8786150030  -0.203905774407 0.03657244  0.00106404  0.1012932 0.7000
  5   -763.0229744453  -0.144359442368 0.08717606  0.00259442  0.0711080 0.0000
  6   -763.3663270699  -0.343352624605 0.00417234  0.00010444  0.0035301 0.0000
                      *** Initiating the SOSCF procedure ***
                           *** Shutting down DIIS ***
                      *** Re-Reading the Fockian *** 
                      *** Removing any level shift *** 
ITER      Energy       Delta-E        Grad      Rot      Max-DP    RMS-DP
  7   -763.36651193  -0.0001848607  0.000475  0.000475  0.002029  0.000046
               *** Restarting incremental Fock matrix formation ***
  8   -763.36654728  -0.0000353486  0.000661  0.001808  0.001662  0.000035
  9   -763.36655444  -0.0000071621  0.000449  0.000900  0.001586  0.000026
 10   -763.36655991  -0.0000054696  0.000094  0.000302  0.000540  0.000010
 11   -763.36656041  -0.0000005039  0.000037  0.000078  0.000138  0.000003
 12   -763.36656046  -0.0000000450  0.000023  0.000030  0.000104  0.000002
 13   -763.36656050  -0.0000000419  0.000007  0.000026  0.000020  0.000000
 14   -763.36656050   0.0000000009  0.000007  0.000014  0.000012  0.000000
                  ***Gradient check signals convergence***
              ***Rediagonalizing the Fockian in SOSCF/NRSCF***

               *****************************************************
               *                     SUCCESS                       *
               *           SCF CONVERGED AFTER  15 CYCLES          *
               *****************************************************

Old exchange energy                            =    -43.178559638 Eh
New exchange energy                            =    -43.178579412 Eh
Exchange energy change after final integration =     -0.000019773 Eh
Total energy after final integration           =   -763.366580275 Eh
Final COS-X integration done in                =    21.441 sec

----------------
TOTAL SCF ENERGY
----------------

Total Energy       :         -763.36658028 Eh          -20772.26069 eV

Components:
Nuclear Repulsion  :         1236.65140615 Eh           33650.99554 eV
Electronic Energy  :        -2000.01798643 Eh          -54423.25624 eV
One Electron Energy:        -3494.39082449 Eh          -95087.20847 eV
Two Electron Energy:         1494.37283806 Eh           40663.95224 eV
Max COSX asymmetry :            0.00000144 Eh               0.00004 eV

Virial components:
Potential Energy   :        -1520.77016899 Eh          -41382.26013 eV
Kinetic Energy     :          757.40358871 Eh           20609.99944 eV
Virial Ratio       :            2.00787294


DFT components:
N(Alpha)           :       62.000002608707 electrons
N(Beta)            :       62.000002608707 electrons
N(Total)           :      124.000005217415 electrons
E(X)               :      -57.397687347021 Eh       
E(C)               :       -5.451358108792 Eh       
E(XC)              :      -62.849045455814 Eh       
DFET-embed. en.    :        0.000000000000 Eh       

---------------
SCF CONVERGENCE
---------------

  Last Energy change         ...   -8.4469e-10  Tolerance :   1.0000e-08
  Last MAX-Density change    ...    1.8874e-15  Tolerance :   1.0000e-07
  Last RMS-Density change    ...    3.1508e-17  Tolerance :   5.0000e-09
  Last Orbital Gradient      ...    5.6755e-07  Tolerance :   1.0000e-05
  Last Orbital Rotation      ...    2.0923e-06  Tolerance :   1.0000e-05

             **** THE GBW FILE WAS UPDATED (pbeh-3c.gbw) ****
             **** DENSITY pbeh-3c.scfp WAS UPDATED ****
             **** ENERGY FILE WAS UPDATED (pbeh-3c.en.tmp) ****
             **** THE GBW FILE WAS UPDATED (pbeh-3c.gbw) ****
             **** DENSITY pbeh-3c.scfp WAS UPDATED ****
----------------
ORBITAL ENERGIES
----------------

  NO   OCC          E(Eh)            E(eV) 
   0   2.0000     -19.519452      -531.1513 
   1   2.0000     -19.438956      -528.9609 
   2   2.0000     -14.679340      -399.4451 
   3   2.0000     -14.645676      -398.5291 
   4   2.0000     -10.532407      -286.6014 
   5   2.0000     -10.500793      -285.7411 
   6   2.0000     -10.487854      -285.3890 
   7   2.0000     -10.474223      -285.0181 
   8   2.0000     -10.474016      -285.0125 
   9   2.0000     -10.465193      -284.7724 
  10   2.0000     -10.452572      -284.4290 
  11   2.0000     -10.444311      -284.2041 
  12   2.0000     -10.443949      -284.1943 
  13   2.0000     -10.442694      -284.1602 
  14   2.0000     -10.438011      -284.0327 
  15   2.0000     -10.434560      -283.9388 
  16   2.0000     -10.424372      -283.6616 
  17   2.0000      -1.166839       -31.7513 
  18   2.0000      -1.124102       -30.5884 
  19   2.0000      -1.082487       -29.4560 
  20   2.0000      -1.008691       -27.4479 
  21   2.0000      -0.936711       -25.4892 
  22   2.0000      -0.893524       -24.3140 
  23   2.0000      -0.846491       -23.0342 
  24   2.0000      -0.834769       -22.7152 
  25   2.0000      -0.811123       -22.0718 
  26   2.0000      -0.790745       -21.5173 
  27   2.0000      -0.771291       -20.9879 
  28   2.0000      -0.717319       -19.5193 
  29   2.0000      -0.699957       -19.0468 
  30   2.0000      -0.661824       -18.0091 
  31   2.0000      -0.639201       -17.3935 
  32   2.0000      -0.628902       -17.1133 
  33   2.0000      -0.609871       -16.5954 
  34   2.0000      -0.576386       -15.6843 
  35   2.0000      -0.556203       -15.1350 
  36   2.0000      -0.549158       -14.9434 
  37   2.0000      -0.530116       -14.4252 
  38   2.0000      -0.529685       -14.4135 
  39   2.0000      -0.520263       -14.1571 
  40   2.0000      -0.514558       -14.0018 
  41   2.0000      -0.496477       -13.5098 
  42   2.0000      -0.489890       -13.3306 
  43   2.0000      -0.479789       -13.0557 
  44   2.0000      -0.473202       -12.8765 
  45   2.0000      -0.464260       -12.6331 
  46   2.0000      -0.456118       -12.4116 
  47   2.0000      -0.447074       -12.1655 
  48   2.0000      -0.445681       -12.1276 
  49   2.0000      -0.437389       -11.9020 
  50   2.0000      -0.429160       -11.6780 
  51   2.0000      -0.415000       -11.2927 
  52   2.0000      -0.402942       -10.9646 
  53   2.0000      -0.395981       -10.7752 
  54   2.0000      -0.390285       -10.6202 
  55   2.0000      -0.376687       -10.2502 
  56   2.0000      -0.350835        -9.5467 
  57   2.0000      -0.317196        -8.6313 
  58   2.0000      -0.295904        -8.0520 
  59   2.0000      -0.288241        -7.8434 
  60   2.0000      -0.244325        -6.6484 
  61   2.0000      -0.230447        -6.2708 
  62   0.0000       0.005203         0.1416 
  63   0.0000       0.059678         1.6239 
  64   0.0000       0.077448         2.1075 
  65   0.0000       0.093083         2.5329 
  66   0.0000       0.125189         3.4066 
  67   0.0000       0.132395         3.6027 
  68   0.0000       0.146114         3.9760 
  69   0.0000       0.152990         4.1631 
  70   0.0000       0.164972         4.4891 
  71   0.0000       0.183496         4.9932 
  72   0.0000       0.188814         5.1379 
  73   0.0000       0.196164         5.3379 
  74   0.0000       0.200411         5.4535 
  75   0.0000       0.204053         5.5526 
  76   0.0000       0.210651         5.7321 
  77   0.0000       0.215290         5.8583 
  78   0.0000       0.221684         6.0323 
  79   0.0000       0.222542         6.0557 
  80   0.0000       0.225322         6.1313 
  81   0.0000       0.230413         6.2699 
  82   0.0000       0.238373         6.4865 
  83   0.0000       0.250053         6.8043 
  84   0.0000       0.253299         6.8926 
  85   0.0000       0.264980         7.2105 
  86   0.0000       0.273168         7.4333 
  87   0.0000       0.280443         7.6312 
  88   0.0000       0.292579         7.9615 
  89   0.0000       0.307120         8.3572 
  90   0.0000       0.324888         8.8407 
  91   0.0000       0.329724         8.9722 
  92   0.0000       0.346845         9.4381 
  93   0.0000       0.358683         9.7603 
  94   0.0000       0.379753        10.3336 
  95   0.0000       0.409678        11.1479 
  96   0.0000       0.431321        11.7369 
  97   0.0000       0.443933        12.0800 
  98   0.0000       0.475977        12.9520 
  99   0.0000       0.490234        13.3399 
 100   0.0000       0.498569        13.5668 
 101   0.0000       0.502657        13.6780 
 102   0.0000       0.513103        13.9622 
 103   0.0000       0.520208        14.1556 
 104   0.0000       0.531954        14.4752 
 105   0.0000       0.540505        14.7079 
 106   0.0000       0.543394        14.7865 
 107   0.0000       0.557415        15.1680 
 108   0.0000       0.568453        15.4684 
 109   0.0000       0.572927        15.5901 
 110   0.0000       0.576003        15.6738 
 111   0.0000       0.596604        16.2344 
 112   0.0000       0.602336        16.3904 
 113   0.0000       0.608697        16.5635 
 114   0.0000       0.610678        16.6174 
 115   0.0000       0.622338        16.9347 
 116   0.0000       0.633257        17.2318 
 117   0.0000       0.643942        17.5225 
 118   0.0000       0.647556        17.6209 
 119   0.0000       0.653782        17.7903 
 120   0.0000       0.667587        18.1660 
 121   0.0000       0.677000        18.4221 
 122   0.0000       0.683668        18.6036 
 123   0.0000       0.699550        19.0357 
 124   0.0000       0.719242        19.5716 
 125   0.0000       0.731815        19.9137 
 126   0.0000       0.739200        20.1146 
 127   0.0000       0.741120        20.1669 
 128   0.0000       0.750901        20.4331 
 129   0.0000       0.779776        21.2188 
 130   0.0000       0.794663        21.6239 
 131   0.0000       0.815483        22.1904 
 132   0.0000       0.837228        22.7821 
 133   0.0000       0.843176        22.9440 
 134   0.0000       0.872220        23.7343 
 135   0.0000       0.881026        23.9739 
 136   0.0000       0.900648        24.5079 
 137   0.0000       0.917328        24.9618 
 138   0.0000       0.942844        25.6561 
 139   0.0000       0.949661        25.8416 
 140   0.0000       0.971697        26.4412 
 141   0.0000       0.975558        26.5463 
 142   0.0000       0.982179        26.7264 
 143   0.0000       0.989759        26.9327 
 144   0.0000       0.995516        27.0894 
 145   0.0000       0.998335        27.1661 
 146   0.0000       1.010776        27.5046 
 147   0.0000       1.016128        27.6503 
 148   0.0000       1.024458        27.8769 
 149   0.0000       1.029517        28.0146 
 150   0.0000       1.032030        28.0830 
 151   0.0000       1.041161        28.3314 
 152   0.0000       1.047551        28.5053 
 153   0.0000       1.052680        28.6449 
 154   0.0000       1.063002        28.9257 
 155   0.0000       1.065969        29.0065 
 156   0.0000       1.084668        29.5153 
 157   0.0000       1.090124        29.6638 
 158   0.0000       1.099671        29.9236 
 159   0.0000       1.121537        30.5186 
 160   0.0000       1.132756        30.8239 
 161   0.0000       1.149413        31.2771 
 162   0.0000       1.156155        31.4606 
 163   0.0000       1.167610        31.7723 
 164   0.0000       1.182340        32.1731 
 165   0.0000       1.223123        33.2829 
 166   0.0000       1.233332        33.5607 
 167   0.0000       1.248657        33.9777 
 168   0.0000       1.262050        34.3421 
 169   0.0000       1.271282        34.5934 
 170   0.0000       1.282742        34.9052 
 171   0.0000       1.295958        35.2648 
 172   0.0000       1.303185        35.4615 
 173   0.0000       1.341859        36.5138 
 174   0.0000       1.351768        36.7835 
 175   0.0000       1.391963        37.8772 
 176   0.0000       1.405211        38.2377 
 177   0.0000       1.421257        38.6744 
 178   0.0000       1.434152        39.0253 
 179   0.0000       1.440536        39.1990 
 180   0.0000       1.455033        39.5935 
 181   0.0000       1.456525        39.6341 
 182   0.0000       1.467050        39.9205 
 183   0.0000       1.483576        40.3702 
 184   0.0000       1.525173        41.5021 
 185   0.0000       1.531263        41.6678 
 186   0.0000       1.536074        41.7987 
 187   0.0000       1.553652        42.2770 
 188   0.0000       1.572214        42.7821 
 189   0.0000       1.591151        43.2974 
 190   0.0000       1.593647        43.3653 
 191   0.0000       1.616638        43.9910 
 192   0.0000       1.634817        44.4856 
 193   0.0000       1.686696        45.8973 
 194   0.0000       1.729768        47.0694 
 195   0.0000       1.766947        48.0811 
 196   0.0000       1.804791        49.1109 
 197   0.0000       1.816390        49.4265 
 198   0.0000       1.845733        50.2250 
 199   0.0000       1.871005        50.9126 
 200   0.0000       1.876893        51.0729 
 201   0.0000       1.885310        51.3019 
 202   0.0000       1.897787        51.6414 
 203   0.0000       1.905991        51.8647 
 204   0.0000       1.924389        52.3653 
 205   0.0000       1.947379        52.9909 
 206   0.0000       1.975621        53.7594 
 207   0.0000       1.980570        53.8941 
 208   0.0000       1.995560        54.3019 
 209   0.0000       2.015836        54.8537 
 210   0.0000       2.028519        55.1988 
 211   0.0000       2.041160        55.5428 
 212   0.0000       2.053444        55.8771 
 213   0.0000       2.067518        56.2600 
 214   0.0000       2.085401        56.7466 
 215   0.0000       2.091240        56.9055 
 216   0.0000       2.100178        57.1488 
 217   0.0000       2.122755        57.7631 
 218   0.0000       2.153582        58.6020 
 219   0.0000       2.163048        58.8595 
 220   0.0000       2.171225        59.0820 
 221   0.0000       2.173695        59.1493 
 222   0.0000       2.183968        59.4288 
 223   0.0000       2.207232        60.0618 
 224   0.0000       2.239688        60.9450 
 225   0.0000       2.263163        61.5838 
 226   0.0000       2.270105        61.7727 
 227   0.0000       2.280576        62.0576 
 228   0.0000       2.288231        62.2659 
 229   0.0000       2.295064        62.4519 
 230   0.0000       2.315012        62.9947 
 231   0.0000       2.325177        63.2713 
 232   0.0000       2.336183        63.5708 
 233   0.0000       2.355793        64.1044 
 234   0.0000       2.367510        64.4232 
 235   0.0000       2.382256        64.8245 
 236   0.0000       2.390688        65.0539 
 237   0.0000       2.430577        66.1394 
 238   0.0000       2.435852        66.2829 
 239   0.0000       2.454365        66.7867 
 240   0.0000       2.493751        67.8584 
 241   0.0000       2.498210        67.9797 
 242   0.0000       2.520348        68.5822 
 243   0.0000       2.545652        69.2707 
 244   0.0000       2.561981        69.7151 
 245   0.0000       2.573075        70.0169 
 246   0.0000       2.594303        70.5946 
 247   0.0000       2.598582        70.7110 
 248   0.0000       2.653120        72.1951 
 249   0.0000       2.670937        72.6799 
 250   0.0000       2.704129        73.5831 
 251   0.0000       2.724245        74.1305 
 252   0.0000       2.738583        74.5206 
 253   0.0000       2.746642        74.7399 
 254   0.0000       2.777561        75.5813 
 255   0.0000       2.785588        75.7997 
 256   0.0000       2.798629        76.1546 
 257   0.0000       2.821798        76.7850 
 258   0.0000       2.843622        77.3789 
 259   0.0000       2.869234        78.0758 
 260   0.0000       2.969212        80.7964 
 261   0.0000       2.992817        81.4387 
 262   0.0000       3.023312        82.2685 
 263   0.0000       3.044727        82.8512 
 264   0.0000       3.066873        83.4539 
 265   0.0000       3.160495        86.0014 
 266   0.0000       3.229362        87.8754 
 267   0.0000       3.236122        88.0594 
 268   0.0000       3.363323        91.5207 
 269   0.0000       3.529650        96.0467 
 270   0.0000      13.298077       361.8591 
 271   0.0000      13.630843       370.9141 
 272   0.0000      13.701580       372.8390 
 273   0.0000      13.752463       374.2236 
 274   0.0000      13.774334       374.8187 
 275   0.0000      13.827803       376.2736 
 276   0.0000      13.857244       377.0748 
 277   0.0000      14.040980       382.0745 
 278   0.0000      14.075890       383.0245 
 279   0.0000      14.148857       385.0100 
 280   0.0000      14.244442       387.6110 
 281   0.0000      14.350182       390.4883 
 282   0.0000      14.549775       395.9195 
 283   0.0000      19.321252       525.7580 
 284   0.0000      19.422519       528.5136 
 285   0.0000      25.779145       701.4862 
 286   0.0000      25.786598       701.6890 

                    ********************************
                    * MULLIKEN POPULATION ANALYSIS *
                    ********************************

-----------------------
MULLIKEN ATOMIC CHARGES
-----------------------
   0 N :   -0.699616
   1 C :   -0.016604
   2 C :    0.015191
   3 C :    0.068772
   4 C :   -0.449090
   5 C :    0.395113
   6 C :   -0.371122
   7 C :   -0.257708
   8 C :    0.366843
   9 H :    0.359266
  10 H :    0.238751
  11 H :    0.206237
  12 H :    0.230829
  13 H :    0.215937
  14 O :   -0.471127
  15 C :   -0.403792
  16 H :    0.202476
  17 H :    0.205701
  18 H :    0.238460
  19 C :   -0.536832
  20 C :   -0.277543
  21 N :   -0.617588
  22 C :    0.530359
  23 C :   -0.758499
  24 H :    0.219668
  25 H :    0.231936
  26 H :    0.220651
  27 H :    0.257095
  28 H :    0.349450
  29 O :   -0.428939
  30 H :    0.271439
  31 H :    0.210801
  32 H :    0.253483
Sum of atomic charges:    0.0000000

--------------------------------
MULLIKEN REDUCED ORBITAL CHARGES
--------------------------------
  0 N s       :     3.600329  s :     3.600329
      pz      :     1.408744  p :     4.057762
      px      :     1.234536
      py      :     1.414482
      dz2     :     0.005519  d :     0.041525
      dxz     :     0.008136
      dyz     :     0.010011
      dx2y2   :     0.008726
      dxy     :     0.009133
  1 C s       :     3.154117  s :     3.154117
      pz      :     0.918239  p :     2.805657
      px      :     0.894797
      py      :     0.992622
      dz2     :     0.013763  d :     0.056829
      dxz     :     0.012341
      dyz     :     0.005852
      dx2y2   :     0.010342
      dxy     :     0.014531
  2 C s       :     3.191181  s :     3.191181
      pz      :     0.946001  p :     2.748541
      px      :     0.842950
      py      :     0.959589
      dz2     :     0.007142  d :     0.045087
      dxz     :     0.009685
      dyz     :     0.007953
      dx2y2   :     0.011643
      dxy     :     0.008664
  3 C s       :     3.200570  s :     3.200570
      pz      :     0.932365  p :     2.683126
      px      :     0.832328
      py      :     0.918433
      dz2     :     0.008064  d :     0.047532
      dxz     :     0.009186
      dyz     :     0.007768
      dx2y2   :     0.011459
      dxy     :     0.011055
  4 C s       :     3.344490  s :     3.344490
      pz      :     1.043901  p :     3.066908
      px      :     0.968263
      py      :     1.054744
      dz2     :     0.004572  d :     0.037691
      dxz     :     0.008148
      dyz     :     0.007929
      dx2y2   :     0.009208
      dxy     :     0.007834
  5 C s       :     3.049018  s :     3.049018
      pz      :     0.891123  p :     2.481188
      px      :     0.769732
      py      :     0.820333
      dz2     :     0.012245  d :     0.074681
      dxz     :     0.016053
      dyz     :     0.010710
      dx2y2   :     0.017119
      dxy     :     0.018555
  6 C s       :     3.250205  s :     3.250205
      pz      :     1.017010  p :     3.083015
      px      :     1.066897
      py      :     0.999108
      dz2     :     0.006570  d :     0.037902
      dxz     :     0.007847
      dyz     :     0.006696
      dx2y2   :     0.010402
      dxy     :     0.006387
  7 C s       :     3.253711  s :     3.253711
      pz      :     1.011958  p :     2.963806
      px      :     0.931171
      py      :     1.020677
      dz2     :     0.004666  d :     0.040190
      dxz     :     0.008920
      dyz     :     0.008084
      dx2y2   :     0.010142
      dxy     :     0.008378
  8 C s       :     3.070218  s :     3.070218
      pz      :     0.918173  p :     2.499636
      px      :     0.698721
      py      :     0.882741
      dz2     :     0.010217  d :     0.063304
      dxz     :     0.013798
      dyz     :     0.007466
      dx2y2   :     0.014808
      dxy     :     0.017015
  9 H s       :     0.640734  s :     0.640734
 10 H s       :     0.761249  s :     0.761249
 11 H s       :     0.793763  s :     0.793763
 12 H s       :     0.769171  s :     0.769171
 13 H s       :     0.784063  s :     0.784063
 14 O s       :     3.791795  s :     3.791795
      pz      :     1.719177  p :     4.646759
      px      :     1.285321
      py      :     1.642261
      dz2     :     0.004212  d :     0.032573
      dxz     :     0.008459
      dyz     :     0.005041
      dx2y2   :     0.007257
      dxy     :     0.007604
 15 C s       :     3.330971  s :     3.330971
      pz      :     1.075037  p :     3.010942
      px      :     0.778867
      py      :     1.157038
      dz2     :     0.016282  d :     0.061879
      dxz     :     0.012412
      dyz     :     0.004792
      dx2y2   :     0.012249
      dxy     :     0.016143
 16 H s       :     0.797524  s :     0.797524
 17 H s       :     0.794299  s :     0.794299
 18 H s       :     0.761540  s :     0.761540
 19 C s       :     3.387247  s :     3.387247
      pz      :     1.024830  p :     3.105918
      px      :     1.078559
      py      :     1.002529
      dz2     :     0.004803  d :     0.043667
      dxz     :     0.012665
      dyz     :     0.010320
      dx2y2   :     0.003976
      dxy     :     0.011902
 20 C s       :     3.286096  s :     3.286096
      pz      :     1.014081  p :     2.933920
      px      :     0.965578
      py      :     0.954261
      dz2     :     0.003544  d :     0.057526
      dxz     :     0.016514
      dyz     :     0.016678
      dx2y2   :     0.008011
      dxy     :     0.012780
 21 N s       :     3.540319  s :     3.540319
      pz      :     1.153440  p :     4.042056
      px      :     1.356542
      py      :     1.532074
      dz2     :     0.008073  d :     0.035213
      dxz     :     0.010048
      dyz     :     0.007420
      dx2y2   :     0.003237
      dxy     :     0.006436
 22 C s       :     2.983795  s :     2.983795
      pz      :     0.767379  p :     2.364434
      px      :     0.826329
      py      :     0.770726
      dz2     :     0.036898  d :     0.121413
      dxz     :     0.024865
      dyz     :     0.024565
      dx2y2   :     0.017685
      dxy     :     0.017400
 23 C s       :     3.411768  s :     3.411768
      pz      :     1.147154  p :     3.312818
      px      :     1.053558
      py      :     1.112107
      dz2     :     0.008809  d :     0.033913
      dxz     :     0.004695
      dyz     :     0.006085
      dx2y2   :     0.004434
      dxy     :     0.009890
 24 H s       :     0.780332  s :     0.780332
 25 H s       :     0.768064  s :     0.768064
 26 H s       :     0.779349  s :     0.779349
 27 H s       :     0.742905  s :     0.742905
 28 H s       :     0.650550  s :     0.650550
 29 O s       :     3.763329  s :     3.763329
      pz      :     1.677723  p :     4.636621
      px      :     1.524515
      py      :     1.434383
      dz2     :     0.004199  d :     0.028989
      dxz     :     0.006048
      dyz     :     0.005299
      dx2y2   :     0.007792
      dxy     :     0.005651
 30 H s       :     0.728561  s :     0.728561
 31 H s       :     0.789199  s :     0.789199
 32 H s       :     0.746517  s :     0.746517


                     *******************************
                     * LOEWDIN POPULATION ANALYSIS *
                     *******************************

----------------------
LOEWDIN ATOMIC CHARGES
----------------------
   0 N :   -0.153083
   1 C :   -0.057324
   2 C :   -0.110782
   3 C :   -0.049200
   4 C :   -0.172698
   5 C :    0.055046
   6 C :   -0.199293
   7 C :   -0.147181
   8 C :    0.006044
   9 H :    0.262662
  10 H :    0.136708
  11 H :    0.138490
  12 H :    0.139985
  13 H :    0.137406
  14 O :   -0.197042
  15 C :   -0.180843
  16 H :    0.111194
  17 H :    0.113009
  18 H :    0.129571
  19 C :   -0.235616
  20 C :   -0.146285
  21 N :   -0.246088
  22 C :    0.112899
  23 C :   -0.391490
  24 H :    0.127964
  25 H :    0.137231
  26 H :    0.119265
  27 H :    0.147886
  28 H :    0.248687
  29 O :   -0.279083
  30 H :    0.163104
  31 H :    0.128222
  32 H :    0.150635

-------------------------------
LOEWDIN REDUCED ORBITAL CHARGES
-------------------------------
  0 N s       :     3.074932  s :     3.074932
      pz      :     1.372247  p :     3.983988
      px      :     1.243085
      py      :     1.368657
      dz2     :     0.012197  d :     0.094163
      dxz     :     0.021099
      dyz     :     0.016959
      dx2y2   :     0.020803
      dxy     :     0.023105
  1 C s       :     2.883004  s :     2.883004
      pz      :     0.997068  p :     3.050608
      px      :     1.007157
      py      :     1.046384
      dz2     :     0.028827  d :     0.123712
      dxz     :     0.027882
      dyz     :     0.014568
      dx2y2   :     0.022356
      dxy     :     0.030079
  2 C s       :     2.840352  s :     2.840352
      pz      :     1.062444  p :     3.162360
      px      :     1.040210
      py      :     1.059706
      dz2     :     0.014658  d :     0.108070
      dxz     :     0.023210
      dyz     :     0.018883
      dx2y2   :     0.028809
      dxy     :     0.022510
  3 C s       :     2.831766  s :     2.831766
      pz      :     1.022871  p :     3.102623
      px      :     1.046176
      py      :     1.033575
      dz2     :     0.018567  d :     0.114811
      dxz     :     0.021791
      dyz     :     0.018644
      dx2y2   :     0.028622
      dxy     :     0.027187
  4 C s       :     2.885325  s :     2.885325
      pz      :     1.067707  p :     3.202019
      px      :     1.062309
      py      :     1.072003
      dz2     :     0.009583  d :     0.085355
      dxz     :     0.019700
      dyz     :     0.014400
      dx2y2   :     0.022458
      dxy     :     0.019214
  5 C s       :     2.824949  s :     2.824949
      pz      :     1.020559  p :     2.946612
      px      :     0.977615
      py      :     0.948438
      dz2     :     0.026853  d :     0.173394
      dxz     :     0.036543
      dyz     :     0.026431
      dx2y2   :     0.040506
      dxy     :     0.043060
  6 C s       :     2.888512  s :     2.888512
      pz      :     1.071457  p :     3.225138
      px      :     1.079677
      py      :     1.074004
      dz2     :     0.014074  d :     0.085643
      dxz     :     0.016683
      dyz     :     0.016305
      dx2y2   :     0.022532
      dxy     :     0.016048
  7 C s       :     2.884748  s :     2.884748
      pz      :     1.049248  p :     3.171509
      px      :     1.064270
      py      :     1.057990
      dz2     :     0.009929  d :     0.090925
      dxz     :     0.021165
      dyz     :     0.014797
      dx2y2   :     0.024017
      dxy     :     0.021018
  8 C s       :     2.811639  s :     2.811639
      pz      :     1.040834  p :     3.034383
      px      :     0.997967
      py      :     0.995582
      dz2     :     0.023152  d :     0.147933
      dxz     :     0.031156
      dyz     :     0.017757
      dx2y2   :     0.035264
      dxy     :     0.040603
  9 H s       :     0.737338  s :     0.737338
 10 H s       :     0.863292  s :     0.863292
 11 H s       :     0.861510  s :     0.861510
 12 H s       :     0.860015  s :     0.860015
 13 H s       :     0.862594  s :     0.862594
 14 O s       :     3.430627  s :     3.430627
      pz      :     1.720556  p :     4.694526
      px      :     1.328079
      py      :     1.645891
      dz2     :     0.008652  d :     0.071888
      dxz     :     0.018539
      dyz     :     0.008039
      dx2y2   :     0.017911
      dxy     :     0.018748
 15 C s       :     2.952195  s :     2.952195
      pz      :     1.094918  p :     3.106644
      px      :     0.867469
      py      :     1.144256
      dz2     :     0.031055  d :     0.122004
      dxz     :     0.026937
      dyz     :     0.007460
      dx2y2   :     0.024709
      dxy     :     0.031843
 16 H s       :     0.888806  s :     0.888806
 17 H s       :     0.886991  s :     0.886991
 18 H s       :     0.870429  s :     0.870429
 19 C s       :     2.905133  s :     2.905133
      pz      :     1.079091  p :     3.240617
      px      :     1.091021
      py      :     1.070505
      dz2     :     0.009879  d :     0.089866
      dxz     :     0.025271
      dyz     :     0.022003
      dx2y2   :     0.008531
      dxy     :     0.024182
 20 C s       :     2.902478  s :     2.902478
      pz      :     1.052849  p :     3.124931
      px      :     1.035147
      py      :     1.036935
      dz2     :     0.006947  d :     0.118877
      dxz     :     0.033411
      dyz     :     0.034233
      dx2y2   :     0.017743
      dxy     :     0.026543
 21 N s       :     3.118646  s :     3.118646
      pz      :     1.205770  p :     4.045646
      px      :     1.347885
      py      :     1.491991
      dz2     :     0.022421  d :     0.081795
      dxz     :     0.023971
      dyz     :     0.017649
      dx2y2   :     0.006407
      dxy     :     0.011347
 22 C s       :     2.831381  s :     2.831381
      pz      :     0.956433  p :     2.780549
      px      :     0.955730
      py      :     0.868387
      dz2     :     0.088475  d :     0.275171
      dxz     :     0.053865
      dyz     :     0.058146
      dx2y2   :     0.036029
      dxy     :     0.038656
 23 C s       :     2.963423  s :     2.963423
      pz      :     1.136987  p :     3.364963
      px      :     1.107969
      py      :     1.120007
      dz2     :     0.015582  d :     0.063105
      dxz     :     0.009472
      dyz     :     0.010550
      dx2y2   :     0.008807
      dxy     :     0.018694
 24 H s       :     0.872036  s :     0.872036
 25 H s       :     0.862769  s :     0.862769
 26 H s       :     0.880735  s :     0.880735
 27 H s       :     0.852114  s :     0.852114
 28 H s       :     0.751313  s :     0.751313
 29 O s       :     3.522335  s :     3.522335
      pz      :     1.682201  p :     4.701669
      px      :     1.555811
      py      :     1.463657
      dz2     :     0.008428  d :     0.055079
      dxz     :     0.011860
      dyz     :     0.010924
      dx2y2   :     0.010440
      dxy     :     0.013428
 30 H s       :     0.836896  s :     0.836896
 31 H s       :     0.871778  s :     0.871778
 32 H s       :     0.849365  s :     0.849365


                      *****************************
                      * MAYER POPULATION ANALYSIS *
                      *****************************

  NA   - Mulliken gross atomic population
  ZA   - Total nuclear charge
  QA   - Mulliken gross atomic charge
  VA   - Mayer's total valence
  BVA  - Mayer's bonded valence
  FA   - Mayer's free valence

  ATOM       NA         ZA         QA         VA         BVA        FA
  0 N      7.6996     7.0000    -0.6996     3.1749     3.1749    -0.0000
  1 C      6.0166     6.0000    -0.0166     3.7010     3.7010     0.0000
  2 C      5.9848     6.0000     0.0152     3.7086     3.7086    -0.0000
  3 C      5.9312     6.0000     0.0688     3.7751     3.7751    -0.0000
  4 C      6.4491     6.0000    -0.4491     3.7939     3.7939     0.0000
  5 C      5.6049     6.0000     0.3951     3.7513     3.7513     0.0000
  6 C      6.3711     6.0000    -0.3711     3.7967     3.7967     0.0000
  7 C      6.2577     6.0000    -0.2577     3.7902     3.7902     0.0000
  8 C      5.6332     6.0000     0.3668     3.5434     3.5434    -0.0000
  9 H      0.6407     1.0000     0.3593     0.8510     0.8510     0.0000
 10 H      0.7612     1.0000     0.2388     0.9050     0.9050     0.0000
 11 H      0.7938     1.0000     0.2062     0.9305     0.9305     0.0000
 12 H      0.7692     1.0000     0.2308     0.9130     0.9130     0.0000
 13 H      0.7841     1.0000     0.2159     0.9137     0.9137    -0.0000
 14 O      8.4711     8.0000    -0.4711     2.0880     2.0880     0.0000
 15 C      6.4038     6.0000    -0.4038     3.7133     3.7133    -0.0000
 16 H      0.7975     1.0000     0.2025     0.9096     0.9096     0.0000
 17 H      0.7943     1.0000     0.2057     0.9091     0.9091     0.0000
 18 H      0.7615     1.0000     0.2385     0.9094     0.9094    -0.0000
 19 C      6.5368     6.0000    -0.5368     3.7102     3.7102    -0.0000
 20 C      6.2775     6.0000    -0.2775     3.6919     3.6919     0.0000
 21 N      7.6176     7.0000    -0.6176     2.9913     2.9913     0.0000
 22 C      5.4696     6.0000     0.5304     4.0073     4.0073    -0.0000
 23 C      6.7585     6.0000    -0.7585     3.6819     3.6819    -0.0000
 24 H      0.7803     1.0000     0.2197     0.9068     0.9068    -0.0000
 25 H      0.7681     1.0000     0.2319     0.9052     0.9052    -0.0000
 26 H      0.7793     1.0000     0.2207     0.9074     0.9074     0.0000
 27 H      0.7429     1.0000     0.2571     0.9135     0.9135     0.0000
 28 H      0.6505     1.0000     0.3495     0.8502     0.8502     0.0000
 29 O      8.4289     8.0000    -0.4289     2.1779     2.1779     0.0000
 30 H      0.7286     1.0000     0.2714     0.8906     0.8906     0.0000
 31 H      0.7892     1.0000     0.2108     0.9159     0.9159    -0.0000
 32 H      0.7465     1.0000     0.2535     0.9055     0.9055    -0.0000

  Mayer bond orders larger than 0.100000
B(  0-N ,  1-C ) :   1.1429 B(  0-N ,  8-C ) :   1.0057 B(  0-N ,  9-H ) :   0.8337 
B(  1-C ,  2-C ) :   1.5543 B(  1-C , 10-H ) :   0.9123 B(  2-C ,  3-C ) :   1.2575 
B(  2-C , 19-C ) :   0.9543 B(  3-C ,  4-C ) :   1.2848 B(  3-C ,  8-C ) :   1.2254 
B(  4-C ,  5-C ) :   1.4439 B(  4-C ,  7-C ) :   0.1004 B(  4-C , 11-H ) :   0.9279 
B(  5-C ,  6-C ) :   1.2813 B(  5-C , 14-O ) :   1.0100 B(  6-C ,  7-C ) :   1.4687 
B(  6-C , 12-H ) :   0.9056 B(  7-C ,  8-C ) :   1.3172 B(  7-C , 13-H ) :   0.9202 
B( 14-O , 15-C ) :   0.9582 B( 15-C , 16-H ) :   0.9078 B( 15-C , 17-H ) :   0.9074 
B( 15-C , 18-H ) :   0.9239 B( 19-C , 20-C ) :   0.9602 B( 19-C , 24-H ) :   0.9221 
B( 19-C , 25-H ) :   0.9214 B( 20-C , 21-N ) :   0.9589 B( 20-C , 26-H ) :   0.9176 
B( 20-C , 27-H ) :   0.8939 B( 21-N , 22-C ) :   1.1196 B( 21-N , 28-H ) :   0.8263 
B( 22-C , 23-C ) :   0.9325 B( 22-C , 29-O ) :   1.9991 B( 23-C , 30-H ) :   0.8962 
B( 23-C , 31-H ) :   0.9216 B( 23-C , 32-H ) :   0.9164 

-------
TIMINGS
-------

Total SCF time: 0 days 0 hours 4 min 15 sec 

Total time                  ....     255.375 sec
Sum of individual times     ....     248.391 sec  ( 97.3%)

Fock matrix formation       ....     227.388 sec  ( 89.0%)
  Split-RI-J                ....      15.710 sec  (  6.9% of F)
  Chain of spheres X        ....     160.053 sec  ( 70.4% of F)
  XC integration            ....      37.717 sec  ( 16.6% of F)
    Basis function eval.    ....      10.857 sec  ( 28.8% of XC)
    Density eval.           ....       7.057 sec  ( 18.7% of XC)
    XC-Functional eval.     ....       2.832 sec  (  7.5% of XC)
    XC-Potential eval.      ....       3.881 sec  ( 10.3% of XC)
Diagonalization             ....       1.958 sec  (  0.8%)
Density matrix formation    ....       0.187 sec  (  0.1%)
Population analysis         ....       0.693 sec  (  0.3%)
Initial guess               ....       0.114 sec  (  0.0%)
Orbital Transformation      ....       0.000 sec  (  0.0%)
Orbital Orthonormalization  ....       0.000 sec  (  0.0%)
DIIS solution               ....       1.179 sec  (  0.5%)
SOSCF solution              ....       1.300 sec  (  0.5%)
Grid generation             ....      15.572 sec  (  6.1%)

Maximum memory used throughout the entire SCF-calculation: 100.0 MB


-------------------------------------------------------------------------------
                          DFT DISPERSION CORRECTION                            
                                                                               
                              DFTD3 V3.1  Rev 1                                
                          USING Becke-Johnson damping                          
-------------------------------------------------------------------------------
The PBEh-3c composite method is recognized
Using three-body term ABC
Active option DFTDOPT                   ...         4   

molecular C6(AA) [au] = 10856.988144 


            DFT-D V3
 parameters
 s6 scaling factor         :     1.0000 
 a1 scaling factor         :     0.4860 
 s8 scaling factor         :     0.0000 
 a2 scaling factor         :     4.5000 
 Damping factor alpha9(ATM):    16.0000 
 ad hoc parameters k1-k3   :    16.0000     1.3333    -4.0000 

 Edisp/kcal,au: -14.677740073772  -0.023390465188 
 E6   /kcal   : -14.886865853 
 E8   /kcal   :  -0.000000000 
 E6(ABC)      :   0.209125779 
 % E8         :   0.000000000 
 % E6(ABC)    :  -1.424781866 

-------------------------   ----------------
Dispersion correction           -0.023390465
-------------------------   ----------------

------------------   -----------------
gCP correction             0.062223715
------------------   -----------------

-------------------------   --------------------
FINAL SINGLE POINT ENERGY      -763.327747025446
-------------------------   --------------------


                            ***************************************
                            *     ORCA property calculations      *
                            ***************************************

                                    ---------------------
                                    Active property flags
                                    ---------------------
   (+) Dipole Moment


------------------------------------------------------------------------------
                       ORCA ELECTRIC PROPERTIES CALCULATION
------------------------------------------------------------------------------

Dipole Moment Calculation                       ... on
Quadrupole Moment Calculation                   ... off
Polarizability Calculation                      ... off
GBWName                                         ... pbeh-3c.gbw
Electron density                                ... pbeh-3c.scfp
The origin for moment calculation is the CENTER OF MASS  = (-0.211889,  0.289967  0.044911)

-------------
DIPOLE MOMENT
-------------
                                X             Y             Z
Electronic contribution:     -2.78253       6.03070       0.27127
Nuclear contribution   :      3.54801      -5.70553      -0.44001
                        -----------------------------------------
Total Dipole Moment    :      0.76548       0.32517      -0.16874
                        -----------------------------------------
Magnitude (a.u.)       :      0.84863
Magnitude (Debye)      :      2.15705



--------------------
Rotational spectrum 
--------------------
 
Rotational constants in cm-1:     0.023499     0.012123     0.010588 
Rotational constants in MHz :   704.491417   363.428200   317.420110 

 Dipole components along the rotational axes: 
x,y,z [a.u.] :     0.772600    -0.318674    -0.147351 
x,y,z [Debye]:     1.963792    -0.810006    -0.374537 

 

Timings for individual modules:

Sum of individual times         ...      259.146 sec (=   4.319 min)
GTO integral calculation        ...        3.317 sec (=   0.055 min)   1.3 %
SCF iterations                  ...      255.829 sec (=   4.264 min)  98.7 %
                             ****ORCA TERMINATED NORMALLY****
TOTAL RUN TIME: 0 days 0 hours 4 minutes 21 seconds 23 msec
