
                                 *****************
                                 * O   R   C   A *
                                 *****************

                                            #,                                       
                                            ###                                      
                                            ####                                     
                                            #####                                    
                                            ######                                   
                                           ########,                                 
                                     ,,################,,,,,                         
                               ,,#################################,,                 
                          ,,##########################################,,             
                       ,#########################################, ''#####,          
                    ,#############################################,,   '####,        
                  ,##################################################,,,,####,       
                ,###########''''           ''''###############################       
              ,#####''   ,,,,##########,,,,          '''####'''          '####       
            ,##' ,,,,###########################,,,                        '##       
           ' ,,###''''                  '''############,,,                           
         ,,##''                                '''############,,,,        ,,,,,,###''
      ,#''                                            '''#######################'''  
     '                                                          ''''####''''         
             ,#######,   #######,   ,#######,      ##                                
            ,#'     '#,  ##    ##  ,#'     '#,    #''#        ######   ,####,        
            ##       ##  ##   ,#'  ##            #'  '#       #        #'  '#        
            ##       ##  #######   ##           ,######,      #####,   #    #        
            '#,     ,#'  ##    ##  '#,     ,#' ,#      #,         ##   #,  ,#        
             '#######'   ##     ##  '#######'  #'      '#     #####' # '####'        



                  #######################################################
                  #                        -***-                        #
                  #          Department of theory and spectroscopy      #
                  #    Directorship and core code : Frank Neese         #
                  #        Max Planck Institute fuer Kohlenforschung    #
                  #                Kaiser Wilhelm Platz 1               #
                  #                 D-45470 Muelheim/Ruhr               #
                  #                      Germany                        #
                  #                                                     #
                  #                  All rights reserved                #
                  #                        -***-                        #
                  #######################################################


                         Program Version 5.0.3 -  RELEASE  -


 With contributions from (in alphabetic order):
   Daniel Aravena         : Magnetic Suceptibility
   Michael Atanasov       : Ab Initio Ligand Field Theory (pilot matlab implementation)
   Alexander A. Auer      : GIAO ZORA, VPT2 properties, NMR spectrum
   Ute Becker             : Parallelization
   Giovanni Bistoni       : ED, misc. LED, open-shell LED, HFLD
   Martin Brehm           : Molecular dynamics
   Dmytro Bykov           : SCF Hessian
   Vijay G. Chilkuri      : MRCI spin determinant printing, contributions to CSF-ICE
   Dipayan Datta          : RHF DLPNO-CCSD density
   Achintya Kumar Dutta   : EOM-CC, STEOM-CC
   Dmitry Ganyushin       : Spin-Orbit,Spin-Spin,Magnetic field MRCI
   Miquel Garcia          : C-PCM and meta-GGA Hessian, CC/C-PCM, Gaussian charge scheme
   Yang Guo               : DLPNO-NEVPT2, F12-NEVPT2, CIM, IAO-localization
   Andreas Hansen         : Spin unrestricted coupled pair/coupled cluster methods
   Benjamin Helmich-Paris : MC-RPA, TRAH-SCF, COSX integrals
   Lee Huntington         : MR-EOM, pCC
   Robert Izsak           : Overlap fitted RIJCOSX, COSX-SCS-MP3, EOM
   Marcus Kettner         : VPT2
   Christian Kollmar      : KDIIS, OOCD, Brueckner-CCSD(T), CCSD density, CASPT2, CASPT2-K
   Simone Kossmann        : Meta GGA functionals, TD-DFT gradient, OOMP2, MP2 Hessian
   Martin Krupicka        : Initial AUTO-CI
   Lucas Lang             : DCDCAS
   Marvin Lechner         : AUTO-CI (C++ implementation), FIC-MRCC
   Dagmar Lenk            : GEPOL surface, SMD
   Dimitrios Liakos       : Extrapolation schemes; Compound Job, initial MDCI parallelization
   Dimitrios Manganas     : Further ROCIS development; embedding schemes
   Dimitrios Pantazis     : SARC Basis sets
   Anastasios Papadopoulos: AUTO-CI, single reference methods and gradients
   Taras Petrenko         : DFT Hessian,TD-DFT gradient, ASA, ECA, R-Raman, ABS, FL, XAS/XES, NRVS
   Peter Pinski           : DLPNO-MP2, DLPNO-MP2 Gradient
   Christoph Reimann      : Effective Core Potentials
   Marius Retegan         : Local ZFS, SOC
   Christoph Riplinger    : Optimizer, TS searches, QM/MM, DLPNO-CCSD(T), (RO)-DLPNO pert. Triples
   Tobias Risthaus        : Range-separated hybrids, TD-DFT gradient, RPA, STAB
   Michael Roemelt        : Original ROCIS implementation
   Masaaki Saitow         : Open-shell DLPNO-CCSD energy and density
   Barbara Sandhoefer     : DKH picture change effects
   Avijit Sen             : IP-ROCIS
   Kantharuban Sivalingam : CASSCF convergence, NEVPT2, FIC-MRCI
   Bernardo de Souza      : ESD, SOC TD-DFT
   Georgi Stoychev        : AutoAux, RI-MP2 NMR, DLPNO-MP2 response
   Willem Van den Heuvel  : Paramagnetic NMR
   Boris Wezisla          : Elementary symmetry handling
   Frank Wennmohs         : Technical directorship


 We gratefully acknowledge several colleagues who have allowed us to
 interface, adapt or use parts of their codes:
   Stefan Grimme, W. Hujo, H. Kruse, P. Pracht,  : VdW corrections, initial TS optimization,
                  C. Bannwarth, S. Ehlert          DFT functionals, gCP, sTDA/sTD-DF
   Ed Valeev, F. Pavosevic, A. Kumar             : LibInt (2-el integral package), F12 methods
   Garnet Chan, S. Sharma, J. Yang, R. Olivares  : DMRG
   Ulf Ekstrom                                   : XCFun DFT Library
   Mihaly Kallay                                 : mrcc  (arbitrary order and MRCC methods)
   Jiri Pittner, Ondrej Demel                    : Mk-CCSD
   Frank Weinhold                                : gennbo (NPA and NBO analysis)
   Christopher J. Cramer and Donald G. Truhlar   : smd solvation model
   Lars Goerigk                                  : TD-DFT with DH, B97 family of functionals
   V. Asgeirsson, H. Jonsson                     : NEB implementation
   FAccTs GmbH                                   : IRC, NEB, NEB-TS, DLPNO-Multilevel, CI-OPT
                                                   MM, QMMM, 2- and 3-layer-ONIOM, Crystal-QMMM,
                                                   LR-CPCM, SF, NACMEs, symmetry and pop. for TD-DFT,
                                                   nearIR, NL-DFT gradient (VV10), updates on ESD,
                                                   ML-optimized integration grids
   S Lehtola, MJT Oliveira, MAL Marques          : LibXC Library
   Liviu Ungur et al                             : ANISO software


 Your calculation uses the libint2 library for the computation of 2-el integrals
 For citations please refer to: http://libint.valeyev.net

 Your ORCA version has been built with support for libXC version: 5.1.0
 For citations please refer to: https://tddft.org/programs/libxc/

 This ORCA versions uses:
   CBLAS   interface :  Fast vector & matrix operations
   LAPACKE interface :  Fast linear algebra routines
   SCALAPACK package :  Parallel linear algebra routines
   Shared memory     :  Shared parallel matrices
   BLAS/LAPACK       :  OpenBLAS 0.3.15  USE64BITINT DYNAMIC_ARCH NO_AFFINITY Haswell SINGLE_THREADED
        Core in use  :  Haswell
   Copyright (c) 2011-2014, The OpenBLAS Project




***************************************
The coordinates will be read from file: BCl3PMe3.xyz
***************************************


Your calculation utilizes the geometrical counterpoise correction gCP
Please cite in your paper:
H.Kruse, S. Grimme J.Chem.Phys., 136, (2012), 154101 
   

Your calculation utilizes the atom-pairwise dispersion correction
with the Becke-Johnson damping scheme (D3BJ)
Cite in your paper:
S.Grimme, S.Ehrlich, L.Goerigk, J Comput Chem, (2011), 32, 1456–1465 
S.Grimme, J.Antony, S.Ehrlich and H.Krieg, J.Chem.Phys., 132, (2010), 154104 
   

Your calculation employs the composite approach PBEh-3c.
Please cite in your paper:
S. Grimme, J. G. Brandenburg, C. Bannwarth, A. Hansen J.Chem.Phys., 143, (2015), 054107 
   

================================================================================

----- Orbital basis set information -----
Your calculation utilizes the basis: def2-mSVP

----- AuxJ basis set information -----
Your calculation utilizes the auxiliary basis: def2/J
   F. Weigend, Phys. Chem. Chem. Phys. 8, 1057 (2006).

================================================================================
                                        WARNINGS
                       Please study these warnings very carefully!
================================================================================


INFO   : the flag for use of the SHARK integral package has been found!

================================================================================
                                       INPUT FILE
================================================================================
NAME = pbeh-3c.inp
|  1> ! PBEh-3c def2/J TightSCF DefGrid3
|  2> 
|  3> %maxcore 60000
|  4> 
|  5> %pal
|  6> nprocs 4
|  7> end
|  8> 
|  9> *xyzfile 0 1 BCl3PMe3.xyz
| 10> 
| 11>                          ****END OF INPUT****
================================================================================

                       ****************************
                       * Single Point Calculation *
                       ****************************

---------------------------------
CARTESIAN COORDINATES (ANGSTROEM)
---------------------------------
  B      0.000000    0.000000   -0.774367
  P      0.000000    0.000000    1.205574
  C      0.000000   -1.703801    1.866182
  C     -1.475535    0.851901    1.866182
  C      1.475535    0.851901    1.866182
  Cl     0.000000    1.793809   -1.286957
  Cl    -1.553484   -0.896905   -1.286957
  Cl     1.553484   -0.896905   -1.286957
  H      2.364481    0.341282    1.492874
  H      1.477799    1.877060    1.492874
  H      1.470874    0.849209    2.958166
  H     -1.477799    1.877060    1.492874
  H     -2.364481    0.341282    1.492874
  H     -1.470874    0.849209    2.958166
  H      0.000000   -1.698419    2.958166
  H     -0.886682   -2.218341    1.492874
  H      0.886682   -2.218341    1.492874

----------------------------
CARTESIAN COORDINATES (A.U.)
----------------------------
  NO LB      ZA    FRAG     MASS         X           Y           Z
   0 B     5.0000    0    10.810    0.000000    0.000000   -1.463341
   1 P    15.0000    0    30.974    0.000000    0.000000    2.278205
   2 C     6.0000    0    12.011    0.000000   -3.219717    3.526573
   3 C     6.0000    0    12.011   -2.788357    1.609859    3.526573
   4 C     6.0000    0    12.011    2.788357    1.609859    3.526573
   5 Cl   17.0000    0    35.453    0.000000    3.389808   -2.431996
   6 Cl   17.0000    0    35.453   -2.935659   -1.694905   -2.431996
   7 Cl   17.0000    0    35.453    2.935659   -1.694905   -2.431996
   8 H     1.0000    0     1.008    4.468221    0.644930    2.821123
   9 H     1.0000    0     1.008    2.792635    3.547129    2.821123
  10 H     1.0000    0     1.008    2.779549    1.604772    5.590123
  11 H     1.0000    0     1.008   -2.792635    3.547129    2.821123
  12 H     1.0000    0     1.008   -4.468221    0.644930    2.821123
  13 H     1.0000    0     1.008   -2.779549    1.604772    5.590123
  14 H     1.0000    0     1.008    0.000000   -3.209547    5.590123
  15 H     1.0000    0     1.008   -1.675586   -4.192057    2.821123
  16 H     1.0000    0     1.008    1.675586   -4.192057    2.821123

--------------------------------
INTERNAL COORDINATES (ANGSTROEM)
--------------------------------
 B      0   0   0     0.000000000000     0.00000000     0.00000000
 P      1   0   0     1.979940800000     0.00000000     0.00000000
 C      2   1   0     1.827386230797   111.19260968     0.00000000
 C      2   1   3     1.827386470948   111.19260676   239.99998753
 C      2   1   3     1.827386470948   111.19260676   120.00001247
 Cl     1   2   3     1.865609519117   105.94755665   180.00000085
 Cl     1   2   3     1.865609588125   105.94755604    59.99998473
 Cl     1   2   3     1.865609588125   105.94755604   300.00001527
 H      5   2   1     1.091015736380   108.42277492   301.06156152
 H      5   2   1     1.091015565352   108.42279265    58.93842284
 H      5   2   1     1.091997165584   110.91018997   180.00004714
 H      4   2   1     1.091015565352   108.42279265   301.06157716
 H      4   2   1     1.091015736380   108.42277492    58.93843848
 H      4   2   1     1.091997165584   110.91018997   179.99995286
 H      3   2   1     1.091997162901   110.91022146   180.00000000
 H      3   2   1     1.091015565124   108.42276666   301.06156200
 H      3   2   1     1.091015565124   108.42276666    58.93843800

---------------------------
INTERNAL COORDINATES (A.U.)
---------------------------
 B      0   0   0     0.000000000000     0.00000000     0.00000000
 P      1   0   0     3.741545873377     0.00000000     0.00000000
 C      2   1   0     3.453259517104   111.19260968     0.00000000
 C      2   1   3     3.453259970924   111.19260676   239.99998753
 C      2   1   3     3.453259970924   111.19260676   120.00001247
 Cl     1   2   3     3.525491063967   105.94755665   180.00000085
 Cl     1   2   3     3.525491194374   105.94755604    59.99998473
 Cl     1   2   3     3.525491194374   105.94755604   300.00001527
 H      5   2   1     2.061720949556   108.42277492   301.06156152
 H      5   2   1     2.061720626361   108.42279265    58.93842284
 H      5   2   1     2.063575581973   110.91018997   180.00004714
 H      4   2   1     2.061720626361   108.42279265   301.06157716
 H      4   2   1     2.061720949556   108.42277492    58.93843848
 H      4   2   1     2.063575581973   110.91018997   179.99995286
 H      3   2   1     2.063575576901   110.91022146   180.00000000
 H      3   2   1     2.061720625930   108.42276666   301.06156200
 H      3   2   1     2.061720625930   108.42276666    58.93843800

---------------------
BASIS SET INFORMATION
---------------------
There are 5 groups of distinct atoms

 Group   1 Type B   : 8s4p1d contracted to 4s2p1d pattern {5111/31/1}
 Group   2 Type P   : 10s7p1d contracted to 4s3p1d pattern {5311/511/1}
 Group   3 Type C   : 8s4p1d contracted to 4s2p1d pattern {5111/31/1}
 Group   4 Type Cl  : 10s7p1d contracted to 4s3p1d pattern {5311/511/1}
 Group   5 Type H   : 4s contracted to 2s pattern {31}

Atom   0B    basis set group =>   1
Atom   1P    basis set group =>   2
Atom   2C    basis set group =>   3
Atom   3C    basis set group =>   3
Atom   4C    basis set group =>   3
Atom   5Cl   basis set group =>   4
Atom   6Cl   basis set group =>   4
Atom   7Cl   basis set group =>   4
Atom   8H    basis set group =>   5
Atom   9H    basis set group =>   5
Atom  10H    basis set group =>   5
Atom  11H    basis set group =>   5
Atom  12H    basis set group =>   5
Atom  13H    basis set group =>   5
Atom  14H    basis set group =>   5
Atom  15H    basis set group =>   5
Atom  16H    basis set group =>   5
---------------------------------
AUXILIARY/J BASIS SET INFORMATION
---------------------------------
There are 5 groups of distinct atoms

 Group   1 Type B   : 12s5p4d2f1g contracted to 6s4p3d1f1g pattern {711111/2111/211/2/1}
 Group   2 Type P   : 14s5p5d2f1g contracted to 8s4p3d1f1g pattern {71111111/2111/311/2/1}
 Group   3 Type C   : 12s5p4d2f1g contracted to 6s4p3d1f1g pattern {711111/2111/211/2/1}
 Group   4 Type Cl  : 14s5p5d2f1g contracted to 8s4p3d1f1g pattern {71111111/2111/311/2/1}
 Group   5 Type H   : 5s2p1d contracted to 3s1p1d pattern {311/2/1}

Atom   0B    basis set group =>   1
Atom   1P    basis set group =>   2
Atom   2C    basis set group =>   3
Atom   3C    basis set group =>   3
Atom   4C    basis set group =>   3
Atom   5Cl   basis set group =>   4
Atom   6Cl   basis set group =>   4
Atom   7Cl   basis set group =>   4
Atom   8H    basis set group =>   5
Atom   9H    basis set group =>   5
Atom  10H    basis set group =>   5
Atom  11H    basis set group =>   5
Atom  12H    basis set group =>   5
Atom  13H    basis set group =>   5
Atom  14H    basis set group =>   5
Atom  15H    basis set group =>   5
Atom  16H    basis set group =>   5


           ************************************************************
           *        Program running with 4 parallel MPI-processes     *
           *              working on a common directory               *
           ************************************************************
------------------------------------------------------------------------------
                           ORCA GTO INTEGRAL CALCULATION
                           -- RI-GTO INTEGRALS CHOSEN --
------------------------------------------------------------------------------
------------------------------------------------------------------------------
                   ___                                                        
                  /   \      - P O W E R E D   B Y -                         
                 /     \                                                     
                 |  |  |   _    _      __       _____    __    __             
                 |  |  |  | |  | |    /  \     |  _  \  |  |  /  |          
                  \  \/   | |  | |   /    \    | | | |  |  | /  /          
                 / \  \   | |__| |  /  /\  \   | |_| |  |  |/  /          
                |  |  |   |  __  | /  /__\  \  |    /   |      \           
                |  |  |   | |  | | |   __   |  |    \   |  |\   \          
                \     /   | |  | | |  |  |  |  | |\  \  |  | \   \       
                 \___/    |_|  |_| |__|  |__|  |_| \__\ |__|  \__/        
                                                                              
                      - O R C A' S   B I G   F R I E N D -                    
                                      &                                       
                       - I N T E G R A L  F E E D E R -                       
                                                                              
 v1 FN, 2020, v2 2021                                                         
------------------------------------------------------------------------------


Reading SHARK input file pbeh-3c.SHARKINP.tmp ... ok
----------------------
SHARK INTEGRAL PACKAGE
----------------------

Number of atoms                             ...     17
Number of basis functions                   ...    150
Number of shells                            ...     78
Maximum angular momentum                    ...      2
Integral batch strategy                     ... SHARK/LIBINT Hybrid
RI-J (if used) integral strategy            ... SPLIT-RIJ (Revised 2003 algorithm where possible)
Printlevel                                  ...      1
Contraction scheme used                     ... SEGMENTED contraction
Coulomb Range Separation                    ... NOT USED
Exchange Range Separation                   ... NOT USED
Finite Nucleus Model                        ... NOT USED
Auxiliary Coulomb fitting basis             ... AVAILABLE
   # of basis functions in Aux-J            ...    499
   # of shells in Aux-J                     ...    173
   Maximum angular momentum in Aux-J        ...      4
Auxiliary J/K fitting basis                 ... NOT available
Auxiliary Correlation fitting basis         ... NOT available
Auxiliary 'external' fitting basis          ... NOT available
Integral threshold                          ...     2.500000e-11
Primitive cut-off                           ...     2.500000e-12
Primitive pair pre-selection threshold      ...     2.500000e-12

Calculating pre-screening integrals         ... done (  0.1 sec) Dimension = 78
Organizing shell pair data                  ... done (  0.2 sec)
Shell pair information
Total number of shell pairs                 ...      3081
Shell pairs after pre-screening             ...      2770
Total number of primitive shell pairs       ...     13051
Primitive shell pairs kept                  ...      7758
          la=0 lb=0:   1096 shell pairs
          la=1 lb=0:    901 shell pairs
          la=1 lb=1:    201 shell pairs
          la=2 lb=0:    379 shell pairs
          la=2 lb=1:    157 shell pairs
          la=2 lb=2:     36 shell pairs

Calculating one electron integrals          ... done (  0.0 sec)
Calculating RI/J V-Matrix + Cholesky decomp.... done (  0.1 sec)
Calculating Nuclear repulsion               ... done (  0.0 sec) ENN=    753.223367679116 Eh

SHARK setup successfully completed in   1.1 seconds

Maximum memory used throughout the entire GTOINT-calculation: 11.5 MB


           ************************************************************
           *        Program running with 4 parallel MPI-processes     *
           *              working on a common directory               *
           ************************************************************
-------------------------------------------------------------------------------
                                 ORCA SCF
-------------------------------------------------------------------------------

------------
SCF SETTINGS
------------
Hamiltonian:
 Density Functional     Method          .... DFT(GTOs)
 Exchange Functional    Exchange        .... PBE
   PBE kappa parameter   XKappa         ....  1.024500
   PBE mue parameter    XMuePBE         ....  0.123457
 Correlation Functional Correlation     .... PBE
   PBE beta parameter  CBetaPBE         ....  0.030000
 LDA part of GGA corr.  LDAOpt          .... PW91-LDA
 Gradients option       PostSCFGGA      .... off
 Hybrid DFT is turned on
   Fraction HF Exchange ScalHFX         ....  0.420000
   Scaling of DF-GGA-X  ScalDFX         ....  0.580000
   Scaling of DF-GGA-C  ScalDFC         ....  1.000000
   Scaling of DF-LDA-C  ScalLDAC        ....  1.000000
   Perturbative correction              ....  0.000000
   Density functional embedding theory  .... OFF
 RI-approximation to the Coulomb term is turned on
   Number of AuxJ basis functions       .... 499
   RIJ-ON(X) (HFX calculated with O(N)) .... on
   Number of AuxJ basis functions       .... 499
   RIJ-COSX (HFX calculated with COS-X)).... on


General Settings:
 Integral files         IntName         .... pbeh-3c
 Hartree-Fock type      HFTyp           .... RHF
 Total Charge           Charge          ....    0
 Multiplicity           Mult            ....    1
 Number of Electrons    NEL             ....   98
 Basis Dimension        Dim             ....  150
 Nuclear Repulsion      ENuc            ....    753.2233676791 Eh

Convergence Acceleration:
 DIIS                   CNVDIIS         .... on
   Start iteration      DIISMaxIt       ....    12
   Startup error        DIISStart       ....  0.200000
   # of expansion vecs  DIISMaxEq       ....     5
   Bias factor          DIISBfac        ....   1.050
   Max. coefficient     DIISMaxC        ....  10.000
 Trust-Rad. Augm. Hess. CNVTRAH         .... auto
   Auto Start mean grad. ratio tolernc. ....  1.125000
   Auto Start start iteration           ....    20
   Auto Start num. interpolation iter.  ....    10
   Max. Number of Micro iterations      ....    16
   Max. Number of Macro iterations      .... Maxiter - #DIIS iter
   Number of Davidson start vectors     ....     2
   Converg. threshold I  (grad. norm)   ....   1.000e-05
   Converg. threshold II (energy diff.) ....   1.000e-08
   Grad. Scal. Fac. for Micro threshold ....   0.100
   Minimum threshold for Micro iter.    ....   0.010
   NR start threshold (gradient norm)   ....   0.001
   Initial trust radius                 ....   0.400
   Minimum AH scaling param. (alpha)    ....   1.000
   Maximum AH scaling param. (alpha)    .... 1000.000
   Orbital update algorithm             .... Taylor
   White noise on init. David. guess    .... on
   Maximum white noise                  ....   0.010
   Quad. conv. algorithm                .... NR
   COSX micro iterations for RIJONX calc.... off
 SOSCF                  CNVSOSCF        .... on
   Start iteration      SOSCFMaxIt      ....   150
   Startup grad/error   SOSCFStart      ....  0.003300
 Level Shifting         CNVShift        .... on
   Level shift para.    LevelShift      ....    0.2500
   Turn off err/grad.   ShiftErr        ....    0.0010
 Zerner damping         CNVZerner       .... off
 Static damping         CNVDamp         .... on
   Fraction old density DampFac         ....    0.7000
   Max. Damping (<1)    DampMax         ....    0.9800
   Min. Damping (>=0)   DampMin         ....    0.0000
   Turn off err/grad.   DampErr         ....    0.1000
 Fernandez-Rico         CNVRico         .... off

SCF Procedure:
 Maximum # iterations   MaxIter         ....   125
 SCF integral mode      SCFMode         .... Direct
   Integral package                     .... SHARK and LIBINT hybrid scheme
 Reset frequency        DirectResetFreq ....    20
 Integral Threshold     Thresh          ....  2.500e-11 Eh
 Primitive CutOff       TCut            ....  2.500e-12 Eh

Convergence Tolerance:
 Convergence Check Mode ConvCheckMode   .... Total+1el-Energy
 Convergence forced     ConvForced      .... 0
 Energy Change          TolE            ....  1.000e-08 Eh
 1-El. energy change                    ....  1.000e-05 Eh
 Orbital Gradient       TolG            ....  1.000e-05
 Orbital Rotation angle TolX            ....  1.000e-05
 DIIS Error             TolErr          ....  5.000e-07


Diagonalization of the overlap matrix:
Smallest eigenvalue                        ... 3.240e-03
Time for diagonalization                   ...    0.004 sec
Threshold for overlap eigenvalues          ... 1.000e-08
Number of eigenvalues below threshold      ... 0
Time for construction of square roots      ...    0.016 sec
Total time needed                          ...    0.021 sec

--------------------------------
INITIAL GUESS: MINIMAL BASIS EHT
--------------------------------
The minimal basis has 65 functions
EHT matrix was diagonalized
Basis set overlap was calculated now projecting the orbitals
Using GuessMode=FMatrix for the initial guess
C*T matrix was formed
Effective Fockian was calculated
Effective Fockian was diagonalized
Initial density was built
                      ------------------
                      INITIAL GUESS DONE
                      ------------------
-------------------
DFT GRID GENERATION
-------------------

General Integration Accuracy     IntAcc      ... 4.959
Radial Grid Type                 RadialGrid  ... OptM3 with GC (2021)
Angular Grid (max. ang.)         AngularGrid ... 6 (Lebedev-590)
Angular grid pruning method      GridPruning ... 4 (adaptive)
Weight generation scheme         WeightScheme... Becke
Basis function cutoff            BFCut       ... 1.0000e-11
Integration weight cutoff        WCut        ... 1.0000e-14
Angular grids for H and He will be reduced by one unit
Partially contracted basis set               ... off
Rotationally invariant grid construction     ... off

Total number of grid points                  ...   199222
Total number of batches                      ...     3122
Average number of points per batch           ...       63
Average number of grid points per atom       ...    11719
Time for grid setup =    4.870 sec

--------------------
COSX GRID GENERATION
--------------------

GRIDX 1
-------
General Integration Accuracy     IntAcc      ... 4.020
Radial Grid Type                 RadialGrid  ... OptM3 with GC (2021)
Angular Grid (max. ang.)         AngularGrid ... 2 (Lebedev-110)
Angular grid pruning method      GridPruning ... 4 (adaptive)
Weight generation scheme         WeightScheme... Becke
Basis function cutoff            BFCut       ... 1.0000e-11
Integration weight cutoff        WCut        ... 1.0000e-14
Angular grids for H and He will be reduced by one unit
Partially contracted basis set               ... on
Rotationally invariant grid construction     ... off

Total number of grid points                  ...    21745
Total number of batches                      ...      351
Average number of points per batch           ...       61
Average number of grid points per atom       ...     1279
UseSFitting                                  ... on

GRIDX 2
-------
General Integration Accuracy     IntAcc      ... 4.338
Radial Grid Type                 RadialGrid  ... OptM3 with GC (2021)
Angular Grid (max. ang.)         AngularGrid ... 3 (Lebedev-194)
Angular grid pruning method      GridPruning ... 4 (adaptive)
Weight generation scheme         WeightScheme... Becke
Basis function cutoff            BFCut       ... 1.0000e-11
Integration weight cutoff        WCut        ... 1.0000e-14
Angular grids for H and He will be reduced by one unit
Partially contracted basis set               ... on
Rotationally invariant grid construction     ... off

Total number of grid points                  ...    49859
Total number of batches                      ...      789
Average number of points per batch           ...       63
Average number of grid points per atom       ...     2933
UseSFitting                                  ... on

GRIDX 3
-------
General Integration Accuracy     IntAcc      ... 4.871
Radial Grid Type                 RadialGrid  ... OptM3 with GC (2021)
Angular Grid (max. ang.)         AngularGrid ... 4 (Lebedev-302)
Angular grid pruning method      GridPruning ... 4 (adaptive)
Weight generation scheme         WeightScheme... Becke
Basis function cutoff            BFCut       ... 1.0000e-11
Integration weight cutoff        WCut        ... 1.0000e-14
Angular grids for H and He will be reduced by one unit
Partially contracted basis set               ... on
Rotationally invariant grid construction     ... off

Total number of grid points                  ...    94291
Total number of batches                      ...     1481
Average number of points per batch           ...       63
Average number of grid points per atom       ...     5547
UseSFitting                                  ... on

Time for X-Grid setup             =    4.598 sec

--------------
SCF ITERATIONS
--------------
ITER       Energy         Delta-E        Max-DP      RMS-DP      [F,P]     Damp
               ***  Starting incremental Fock matrix formation  ***
  0  -1863.2672794350   0.000000000000 0.13743091  0.00579049  0.3788516 0.7000
  1  -1863.6832546778  -0.415975242841 0.09792344  0.00405096  0.2675376 0.7000
                               ***Turning on DIIS***
  2  -1863.9362073672  -0.252952689321 0.09204122  0.00275592  0.1883552 0.7000
  3  -1864.1081860464  -0.171978679243 0.09115174  0.00209646  0.1325477 0.7000
  4  -1864.2299511148  -0.121765068385 0.22983238  0.00506370  0.0927984 0.0000
  5  -1864.5188773489  -0.288926234071 0.01699536  0.00038359  0.0077910 0.0000
  6  -1864.5192743951  -0.000397046225 0.00359322  0.00011127  0.0033460 0.0000
                      *** Initiating the SOSCF procedure ***
                           *** Shutting down DIIS ***
                      *** Re-Reading the Fockian *** 
                      *** Removing any level shift *** 
ITER      Energy       Delta-E        Grad      Rot      Max-DP    RMS-DP
  7  -1864.51937581  -0.0001014127  0.000367  0.000367  0.002725  0.000064
               *** Restarting incremental Fock matrix formation ***
  8  -1864.51937352   0.0000022880  0.000083  0.000145  0.000881  0.000015
  9  -1864.51937367  -0.0000001550  0.000069  0.000064  0.000179  0.000006
 10  -1864.51937384  -0.0000001695  0.000010  0.000019  0.000055  0.000001
 11  -1864.51937384   0.0000000021  0.000008  0.000006  0.000013  0.000000
                  ***Gradient check signals convergence***
              ***Rediagonalizing the Fockian in SOSCF/NRSCF***

               *****************************************************
               *                     SUCCESS                       *
               *           SCF CONVERGED AFTER  12 CYCLES          *
               *****************************************************

Old exchange energy                            =    -53.755724521 Eh
New exchange energy                            =    -53.755725651 Eh
Exchange energy change after final integration =     -0.000001130 Eh
Total energy after final integration           =  -1864.519374970 Eh
Final COS-X integration done in                =     5.900 sec

----------------
TOTAL SCF ENERGY
----------------

Total Energy       :        -1864.51937497 Eh          -50736.15157 eV

Components:
Nuclear Repulsion  :          753.22336768 Eh           20496.24984 eV
Electronic Energy  :        -2617.74274265 Eh          -71232.40141 eV
One Electron Energy:        -4072.80664264 Eh         -110826.70307 eV
Two Electron Energy:         1455.06389999 Eh           39594.30165 eV
Max COSX asymmetry :            0.00000451 Eh               0.00012 eV

Virial components:
Potential Energy   :        -3725.14110880 Eh         -101366.24293 eV
Kinetic Energy     :         1860.62173383 Eh           50630.09136 eV
Virial Ratio       :            2.00209481


DFT components:
N(Alpha)           :       49.000005106879 electrons
N(Beta)            :       49.000005106879 electrons
N(Total)           :       98.000010213758 electrons
E(X)               :      -71.632644906041 Eh       
E(C)               :       -4.772734132179 Eh       
E(XC)              :      -76.405379038220 Eh       
DFET-embed. en.    :        0.000000000000 Eh       

---------------
SCF CONVERGENCE
---------------

  Last Energy change         ...    2.0234e-09  Tolerance :   1.0000e-08
  Last MAX-Density change    ...    4.4409e-15  Tolerance :   1.0000e-07
  Last RMS-Density change    ...    9.8681e-17  Tolerance :   5.0000e-09
  Last Orbital Gradient      ...    7.3014e-07  Tolerance :   1.0000e-05
  Last Orbital Rotation      ...    8.9355e-07  Tolerance :   1.0000e-05

             **** THE GBW FILE WAS UPDATED (pbeh-3c.gbw) ****
             **** DENSITY pbeh-3c.scfp WAS UPDATED ****
             **** ENERGY FILE WAS UPDATED (pbeh-3c.en.tmp) ****
             **** THE GBW FILE WAS UPDATED (pbeh-3c.gbw) ****
             **** DENSITY pbeh-3c.scfp WAS UPDATED ****
----------------
ORBITAL ENERGIES
----------------

  NO   OCC          E(Eh)            E(eV) 
   0   2.0000    -102.267456     -2782.8390 
   1   2.0000    -102.267450     -2782.8388 
   2   2.0000    -102.267399     -2782.8374 
   3   2.0000     -77.817268     -2117.5155 
   4   2.0000     -10.478933      -285.1463 
   5   2.0000     -10.478933      -285.1463 
   6   2.0000     -10.478913      -285.1457 
   7   2.0000      -9.733845      -264.8714 
   8   2.0000      -9.733844      -264.8714 
   9   2.0000      -9.733806      -264.8703 
  10   2.0000      -7.419822      -201.9036 
  11   2.0000      -7.419819      -201.9035 
  12   2.0000      -7.419806      -201.9032 
  13   2.0000      -7.414385      -201.7557 
  14   2.0000      -7.414372      -201.7553 
  15   2.0000      -7.414371      -201.7553 
  16   2.0000      -7.414218      -201.7511 
  17   2.0000      -7.414218      -201.7511 
  18   2.0000      -7.414213      -201.7510 
  19   2.0000      -7.058910      -192.0827 
  20   2.0000      -6.887706      -187.4240 
  21   2.0000      -4.979015      -135.4859 
  22   2.0000      -4.979015      -135.4859 
  23   2.0000      -4.977548      -135.4460 
  24   2.0000      -0.926899       -25.2222 
  25   2.0000      -0.895296       -24.3622 
  26   2.0000      -0.867905       -23.6169 
  27   2.0000      -0.867903       -23.6168 
  28   2.0000      -0.822184       -22.3728 
  29   2.0000      -0.822183       -22.3727 
  30   2.0000      -0.667973       -18.1765 
  31   2.0000      -0.563520       -15.3342 
  32   2.0000      -0.531449       -14.4615 
  33   2.0000      -0.531448       -14.4614 
  34   2.0000      -0.523877       -14.2554 
  35   2.0000      -0.506629       -13.7861 
  36   2.0000      -0.506627       -13.7860 
  37   2.0000      -0.485924       -13.2227 
  38   2.0000      -0.449963       -12.2441 
  39   2.0000      -0.449963       -12.2441 
  40   2.0000      -0.432400       -11.7662 
  41   2.0000      -0.426887       -11.6162 
  42   2.0000      -0.426887       -11.6162 
  43   2.0000      -0.357195        -9.7198 
  44   2.0000      -0.357193        -9.7197 
  45   2.0000      -0.335586        -9.1317 
  46   2.0000      -0.335585        -9.1317 
  47   2.0000      -0.318906        -8.6779 
  48   2.0000      -0.316605        -8.6153 
  49   0.0000       0.059121         1.6088 
  50   0.0000       0.059121         1.6088 
  51   0.0000       0.094406         2.5689 
  52   0.0000       0.097927         2.6647 
  53   0.0000       0.119198         3.2436 
  54   0.0000       0.119200         3.2436 
  55   0.0000       0.129031         3.5111 
  56   0.0000       0.139689         3.8011 
  57   0.0000       0.170954         4.6519 
  58   0.0000       0.179359         4.8806 
  59   0.0000       0.179362         4.8807 
  60   0.0000       0.192330         5.2336 
  61   0.0000       0.192332         5.2336 
  62   0.0000       0.204452         5.5634 
  63   0.0000       0.204452         5.5634 
  64   0.0000       0.220208         5.9922 
  65   0.0000       0.319359         8.6902 
  66   0.0000       0.334945         9.1143 
  67   0.0000       0.334954         9.1146 
  68   0.0000       0.394685        10.7399 
  69   0.0000       0.407842        11.0979 
  70   0.0000       0.407842        11.0980 
  71   0.0000       0.469138        12.7659 
  72   0.0000       0.476595        12.9688 
  73   0.0000       0.476595        12.9688 
  74   0.0000       0.539755        14.6875 
  75   0.0000       0.598920        16.2974 
  76   0.0000       0.598921        16.2975 
  77   0.0000       0.615415        16.7463 
  78   0.0000       0.638719        17.3804 
  79   0.0000       0.638729        17.3807 
  80   0.0000       0.678339        18.4585 
  81   0.0000       0.678351        18.4589 
  82   0.0000       0.682142        18.5620 
  83   0.0000       0.693423        18.8690 
  84   0.0000       0.697253        18.9732 
  85   0.0000       0.697255        18.9733 
  86   0.0000       0.815734        22.1973 
  87   0.0000       0.828021        22.5316 
  88   0.0000       0.828024        22.5317 
  89   0.0000       0.833328        22.6760 
  90   0.0000       0.853721        23.2309 
  91   0.0000       0.853722        23.2310 
  92   0.0000       0.859750        23.3950 
  93   0.0000       0.868669        23.6377 
  94   0.0000       0.868672        23.6378 
  95   0.0000       0.878269        23.8989 
  96   0.0000       0.889844        24.2139 
  97   0.0000       0.889845        24.2139 
  98   0.0000       0.893086        24.3021 
  99   0.0000       0.938268        25.5316 
 100   0.0000       0.938269        25.5316 
 101   0.0000       0.956412        26.0253 
 102   0.0000       0.956413        26.0253 
 103   0.0000       0.959648        26.1133 
 104   0.0000       0.973082        26.4789 
 105   0.0000       0.978346        26.6222 
 106   0.0000       0.996403        27.1135 
 107   0.0000       0.996411        27.1137 
 108   0.0000       1.022460        27.8226 
 109   0.0000       1.042398        28.3651 
 110   0.0000       1.042399        28.3651 
 111   0.0000       1.068930        29.0871 
 112   0.0000       1.092579        29.7306 
 113   0.0000       1.092580        29.7306 
 114   0.0000       1.117928        30.4204 
 115   0.0000       1.124691        30.6044 
 116   0.0000       1.124692        30.6044 
 117   0.0000       1.240889        33.7663 
 118   0.0000       1.241352        33.7789 
 119   0.0000       1.241361        33.7791 
 120   0.0000       1.286324        35.0026 
 121   0.0000       1.286328        35.0028 
 122   0.0000       1.392579        37.8940 
 123   0.0000       1.467564        39.9345 
 124   0.0000       1.467570        39.9346 
 125   0.0000       1.535377        41.7797 
 126   0.0000       1.670420        45.4544 
 127   0.0000       1.721137        46.8345 
 128   0.0000       1.721138        46.8346 
 129   0.0000       1.863189        50.6999 
 130   0.0000       1.863189        50.6999 
 131   0.0000       1.896053        51.5942 
 132   0.0000       1.930211        52.5237 
 133   0.0000       1.930212        52.5237 
 134   0.0000       2.048701        55.7480 
 135   0.0000       2.174305        59.1658 
 136   0.0000       2.207248        60.0623 
 137   0.0000       2.207249        60.0623 
 138   0.0000       2.231755        60.7292 
 139   0.0000       2.231755        60.7292 
 140   0.0000       2.254548        61.3494 
 141   0.0000       2.282197        62.1017 
 142   0.0000       2.282199        62.1018 
 143   0.0000       2.285038        62.1790 
 144   0.0000       2.309909        62.8558 
 145   0.0000       2.309910        62.8558 
 146   0.0000       9.073305       246.8972 
 147   0.0000      13.712620       373.1394 
 148   0.0000      13.726696       373.5224 
 149   0.0000      13.726696       373.5224 

                    ********************************
                    * MULLIKEN POPULATION ANALYSIS *
                    ********************************

-----------------------
MULLIKEN ATOMIC CHARGES
-----------------------
   0 B :    0.301086
   1 P :    0.532111
   2 C :   -0.837105
   3 C :   -0.837227
   4 C :   -0.837227
   5 Cl:   -0.260905
   6 Cl:   -0.260922
   7 Cl:   -0.260922
   8 H :    0.282831
   9 H :    0.282825
  10 H :    0.254735
  11 H :    0.282825
  12 H :    0.282831
  13 H :    0.254735
  14 H :    0.254737
  15 H :    0.282795
  16 H :    0.282795
Sum of atomic charges:    0.0000000

--------------------------------
MULLIKEN REDUCED ORBITAL CHARGES
--------------------------------
  0 B s       :     2.794725  s :     2.794725
      pz      :     0.656019  p :     1.849815
      px      :     0.596904
      py      :     0.596892
      dz2     :     0.013853  d :     0.054374
      dxz     :     0.006525
      dyz     :     0.006525
      dx2y2   :     0.013735
      dxy     :     0.013735
  1 P s       :     5.321545  s :     5.321545
      pz      :     3.143658  p :     8.908432
      px      :     2.882382
      py      :     2.882392
      dz2     :     0.048747  d :     0.237912
      dxz     :     0.039664
      dyz     :     0.039664
      dx2y2   :     0.054919
      dxy     :     0.054919
  2 C s       :     3.439953  s :     3.439953
      pz      :     1.137740  p :     3.368472
      px      :     1.195664
      py      :     1.035067
      dz2     :     0.009864  d :     0.028680
      dxz     :     0.003951
      dyz     :     0.003247
      dx2y2   :     0.005276
      dxy     :     0.006342
  3 C s       :     3.439993  s :     3.439993
      pz      :     1.137757  p :     3.368553
      px      :     1.075250
      py      :     1.155545
      dz2     :     0.009864  d :     0.028681
      dxz     :     0.003423
      dyz     :     0.003775
      dx2y2   :     0.006076
      dxy     :     0.005543
  4 C s       :     3.439993  s :     3.439993
      pz      :     1.137757  p :     3.368553
      px      :     1.075250
      py      :     1.155546
      dz2     :     0.009864  d :     0.028681
      dxz     :     0.003423
      dyz     :     0.003775
      dx2y2   :     0.006076
      dxy     :     0.005543
  5 Cls       :     5.948501  s :     5.948501
      pz      :     3.875974  p :    11.291519
      px      :     3.898861
      py      :     3.516684
      dz2     :     0.003245  d :     0.020884
      dxz     :     0.000465
      dyz     :     0.005442
      dx2y2   :     0.008688
      dxy     :     0.003043
  6 Cls       :     5.948508  s :     5.948508
      pz      :     3.875977  p :    11.291529
      px      :     3.612233
      py      :     3.803320
      dz2     :     0.003245  d :     0.020884
      dxz     :     0.004198
      dyz     :     0.001709
      dx2y2   :     0.004454
      dxy     :     0.007277
  7 Cls       :     5.948508  s :     5.948508
      pz      :     3.875977  p :    11.291529
      px      :     3.612233
      py      :     3.803320
      dz2     :     0.003245  d :     0.020884
      dxz     :     0.004198
      dyz     :     0.001709
      dx2y2   :     0.004454
      dxy     :     0.007277
  8 H s       :     0.717169  s :     0.717169
  9 H s       :     0.717175  s :     0.717175
 10 H s       :     0.745265  s :     0.745265
 11 H s       :     0.717175  s :     0.717175
 12 H s       :     0.717169  s :     0.717169
 13 H s       :     0.745265  s :     0.745265
 14 H s       :     0.745263  s :     0.745263
 15 H s       :     0.717205  s :     0.717205
 16 H s       :     0.717205  s :     0.717205


                     *******************************
                     * LOEWDIN POPULATION ANALYSIS *
                     *******************************

----------------------
LOEWDIN ATOMIC CHARGES
----------------------
   0 B :   -0.456675
   1 P :    0.735642
   2 C :   -0.504521
   3 C :   -0.504550
   4 C :   -0.504550
   5 Cl:   -0.069702
   6 Cl:   -0.069709
   7 Cl:   -0.069709
   8 H :    0.166446
   9 H :    0.166444
  10 H :    0.148373
  11 H :    0.166444
  12 H :    0.166446
  13 H :    0.148373
  14 H :    0.148374
  15 H :    0.166436
  16 H :    0.166436

-------------------------------
LOEWDIN REDUCED ORBITAL CHARGES
-------------------------------
  0 B s       :     2.826489  s :     2.826489
      pz      :     0.862994  p :     2.512948
      px      :     0.824979
      py      :     0.824975
      dz2     :     0.032134  d :     0.117239
      dxz     :     0.013143
      dyz     :     0.013143
      dx2y2   :     0.029410
      dxy     :     0.029410
  1 P s       :     5.085926  s :     5.085926
      pz      :     3.091919  p :     8.854890
      px      :     2.881485
      py      :     2.881486
      dz2     :     0.067742  d :     0.323542
      dxz     :     0.052536
      dyz     :     0.052536
      dx2y2   :     0.075363
      dxy     :     0.075364
  2 C s       :     3.004191  s :     3.004191
      pz      :     1.147949  p :     3.449469
      px      :     1.180016
      py      :     1.121504
      dz2     :     0.016478  d :     0.050861
      dxz     :     0.005737
      dyz     :     0.007381
      dx2y2   :     0.010374
      dxy     :     0.010891
  3 C s       :     3.004198  s :     3.004198
      pz      :     1.147953  p :     3.449492
      px      :     1.136141
      py      :     1.165398
      dz2     :     0.016478  d :     0.050860
      dxz     :     0.006970
      dyz     :     0.006148
      dx2y2   :     0.010761
      dxy     :     0.010503
  4 C s       :     3.004198  s :     3.004198
      pz      :     1.147953  p :     3.449492
      px      :     1.136141
      py      :     1.165398
      dz2     :     0.016478  d :     0.050860
      dxz     :     0.006970
      dyz     :     0.006148
      dx2y2   :     0.010761
      dxy     :     0.010503
  5 Cls       :     5.774818  s :     5.774818
      pz      :     3.862454  p :    11.271949
      px      :     3.902465
      py      :     3.507030
      dz2     :     0.003692  d :     0.022934
      dxz     :     0.000458
      dyz     :     0.005929
      dx2y2   :     0.009562
      dxy     :     0.003294
  6 Cls       :     5.774819  s :     5.774819
      pz      :     3.862458  p :    11.271956
      px      :     3.605890
      py      :     3.803608
      dz2     :     0.003692  d :     0.022934
      dxz     :     0.004562
      dyz     :     0.001826
      dx2y2   :     0.004861
      dxy     :     0.007995
  7 Cls       :     5.774819  s :     5.774819
      pz      :     3.862458  p :    11.271956
      px      :     3.605890
      py      :     3.803608
      dz2     :     0.003692  d :     0.022934
      dxz     :     0.004562
      dyz     :     0.001826
      dx2y2   :     0.004861
      dxy     :     0.007995
  8 H s       :     0.833554  s :     0.833554
  9 H s       :     0.833556  s :     0.833556
 10 H s       :     0.851627  s :     0.851627
 11 H s       :     0.833556  s :     0.833556
 12 H s       :     0.833554  s :     0.833554
 13 H s       :     0.851627  s :     0.851627
 14 H s       :     0.851626  s :     0.851626
 15 H s       :     0.833564  s :     0.833564
 16 H s       :     0.833564  s :     0.833564


                      *****************************
                      * MAYER POPULATION ANALYSIS *
                      *****************************

  NA   - Mulliken gross atomic population
  ZA   - Total nuclear charge
  QA   - Mulliken gross atomic charge
  VA   - Mayer's total valence
  BVA  - Mayer's bonded valence
  FA   - Mayer's free valence

  ATOM       NA         ZA         QA         VA         BVA        FA
  0 B      4.6989     5.0000     0.3011     3.7797     3.7797    -0.0000
  1 P     14.4679    15.0000     0.5321     3.8535     3.8535     0.0000
  2 C      6.8371     6.0000    -0.8371     3.6669     3.6669     0.0000
  3 C      6.8372     6.0000    -0.8372     3.6668     3.6668    -0.0000
  4 C      6.8372     6.0000    -0.8372     3.6668     3.6668    -0.0000
  5 Cl    17.2609    17.0000    -0.2609     1.1018     1.1018     0.0000
  6 Cl    17.2609    17.0000    -0.2609     1.1018     1.1018    -0.0000
  7 Cl    17.2609    17.0000    -0.2609     1.1018     1.1018    -0.0000
  8 H      0.7172     1.0000     0.2828     0.8961     0.8961     0.0000
  9 H      0.7172     1.0000     0.2828     0.8961     0.8961     0.0000
 10 H      0.7453     1.0000     0.2547     0.8999     0.8999    -0.0000
 11 H      0.7172     1.0000     0.2828     0.8961     0.8961     0.0000
 12 H      0.7172     1.0000     0.2828     0.8961     0.8961     0.0000
 13 H      0.7453     1.0000     0.2547     0.8999     0.8999    -0.0000
 14 H      0.7453     1.0000     0.2547     0.8999     0.8999     0.0000
 15 H      0.7172     1.0000     0.2828     0.8962     0.8962    -0.0000
 16 H      0.7172     1.0000     0.2828     0.8962     0.8962     0.0000

  Mayer bond orders larger than 0.100000
B(  0-B ,  1-P ) :   0.7582 B(  0-B ,  5-Cl) :   1.0132 B(  0-B ,  6-Cl) :   1.0132 
B(  0-B ,  7-Cl) :   1.0132 B(  1-P ,  2-C ) :   0.9887 B(  1-P ,  3-C ) :   0.9887 
B(  1-P ,  4-C ) :   0.9887 B(  2-C , 14-H ) :   0.8995 B(  2-C , 15-H ) :   0.8866 
B(  2-C , 16-H ) :   0.8866 B(  3-C , 11-H ) :   0.8866 B(  3-C , 12-H ) :   0.8866 
B(  3-C , 13-H ) :   0.8995 B(  4-C ,  8-H ) :   0.8866 B(  4-C ,  9-H ) :   0.8866 
B(  4-C , 10-H ) :   0.8995 

-------
TIMINGS
-------

Total SCF time: 0 days 0 hours 1 min 31 sec 

Total time                  ....      91.577 sec
Sum of individual times     ....      87.322 sec  ( 95.4%)

Fock matrix formation       ....      71.877 sec  ( 78.5%)
  Split-RI-J                ....       8.074 sec  ( 11.2% of F)
  Chain of spheres X        ....      36.567 sec  ( 50.9% of F)
  XC integration            ....      16.453 sec  ( 22.9% of F)
    Basis function eval.    ....       3.750 sec  ( 22.8% of XC)
    Density eval.           ....       2.096 sec  ( 12.7% of XC)
    XC-Functional eval.     ....       1.567 sec  (  9.5% of XC)
    XC-Potential eval.      ....       1.180 sec  (  7.2% of XC)
Diagonalization             ....       1.616 sec  (  1.8%)
Density matrix formation    ....       0.168 sec  (  0.2%)
Population analysis         ....       0.988 sec  (  1.1%)
Initial guess               ....       0.116 sec  (  0.1%)
Orbital Transformation      ....       0.000 sec  (  0.0%)
Orbital Orthonormalization  ....       0.000 sec  (  0.0%)
DIIS solution               ....       2.607 sec  (  2.8%)
SOSCF solution              ....       0.481 sec  (  0.5%)
Grid generation             ....       9.469 sec  ( 10.3%)

Maximum memory used throughout the entire SCF-calculation: 57.0 MB


-------------------------------------------------------------------------------
                          DFT DISPERSION CORRECTION                            
                                                                               
                              DFTD3 V3.1  Rev 1                                
                          USING Becke-Johnson damping                          
-------------------------------------------------------------------------------
The PBEh-3c composite method is recognized
Using three-body term ABC
Active option DFTDOPT                   ...         4   

molecular C6(AA) [au] = 5563.868260 


            DFT-D V3
 parameters
 s6 scaling factor         :     1.0000 
 a1 scaling factor         :     0.4860 
 s8 scaling factor         :     0.0000 
 a2 scaling factor         :     4.5000 
 Damping factor alpha9(ATM):    16.0000 
 ad hoc parameters k1-k3   :    16.0000     1.3333    -4.0000 

 Edisp/kcal,au: -7.557077342221  -0.012042968032 
 E6   /kcal   :  -7.637853108 
 E8   /kcal   :  -0.000000000 
 E6(ABC)      :   0.080775766 
 % E8         :   0.000000000 
 % E6(ABC)    :  -1.068875731 

-------------------------   ----------------
Dispersion correction           -0.012042968
-------------------------   ----------------

------------------   -----------------
gCP correction             0.015578335
------------------   -----------------

-------------------------   --------------------
FINAL SINGLE POINT ENERGY     -1864.515839602533
-------------------------   --------------------


                            ***************************************
                            *     ORCA property calculations      *
                            ***************************************

                                    ---------------------
                                    Active property flags
                                    ---------------------
   (+) Dipole Moment


------------------------------------------------------------------------------
                       ORCA ELECTRIC PROPERTIES CALCULATION
------------------------------------------------------------------------------

Dipole Moment Calculation                       ... on
Quadrupole Moment Calculation                   ... off
Polarizability Calculation                      ... off
GBWName                                         ... pbeh-3c.gbw
Electron density                                ... pbeh-3c.scfp
The origin for moment calculation is the CENTER OF MASS  = ( 0.000000, -0.000000 -0.221884)

-------------
DIPOLE MOMENT
-------------
                                X             Y             Z
Electronic contribution:     -0.00000      -0.00000     -18.70810
Nuclear contribution   :      0.00000       0.00000      21.74459
                        -----------------------------------------
Total Dipole Moment    :     -0.00000       0.00000       3.03649
                        -----------------------------------------
Magnitude (a.u.)       :      3.03649
Magnitude (Debye)      :      7.71814



--------------------
Rotational spectrum 
--------------------
 
Rotational constants in cm-1:     0.034398     0.026528     0.026528 
Rotational constants in MHz :  1031.220837   795.291866   795.291730 

 Dipole components along the rotational axes: 
x,y,z [a.u.] :    -3.036489     0.000000    -0.000000 
x,y,z [Debye]:    -7.718143     0.000000    -0.000000 

 

Timings for individual modules:

Sum of individual times         ...       93.371 sec (=   1.556 min)
GTO integral calculation        ...        1.471 sec (=   0.025 min)   1.6 %
SCF iterations                  ...       91.900 sec (=   1.532 min)  98.4 %
                             ****ORCA TERMINATED NORMALLY****
TOTAL RUN TIME: 0 days 0 hours 1 minutes 35 seconds 436 msec
