
                                 *****************
                                 * O   R   C   A *
                                 *****************

                                            #,                                       
                                            ###                                      
                                            ####                                     
                                            #####                                    
                                            ######                                   
                                           ########,                                 
                                     ,,################,,,,,                         
                               ,,#################################,,                 
                          ,,##########################################,,             
                       ,#########################################, ''#####,          
                    ,#############################################,,   '####,        
                  ,##################################################,,,,####,       
                ,###########''''           ''''###############################       
              ,#####''   ,,,,##########,,,,          '''####'''          '####       
            ,##' ,,,,###########################,,,                        '##       
           ' ,,###''''                  '''############,,,                           
         ,,##''                                '''############,,,,        ,,,,,,###''
      ,#''                                            '''#######################'''  
     '                                                          ''''####''''         
             ,#######,   #######,   ,#######,      ##                                
            ,#'     '#,  ##    ##  ,#'     '#,    #''#        ######   ,####,        
            ##       ##  ##   ,#'  ##            #'  '#       #        #'  '#        
            ##       ##  #######   ##           ,######,      #####,   #    #        
            '#,     ,#'  ##    ##  '#,     ,#' ,#      #,         ##   #,  ,#        
             '#######'   ##     ##  '#######'  #'      '#     #####' # '####'        



                  #######################################################
                  #                        -***-                        #
                  #          Department of theory and spectroscopy      #
                  #    Directorship and core code : Frank Neese         #
                  #        Max Planck Institute fuer Kohlenforschung    #
                  #                Kaiser Wilhelm Platz 1               #
                  #                 D-45470 Muelheim/Ruhr               #
                  #                      Germany                        #
                  #                                                     #
                  #                  All rights reserved                #
                  #                        -***-                        #
                  #######################################################


                         Program Version 5.0.3 -  RELEASE  -


 With contributions from (in alphabetic order):
   Daniel Aravena         : Magnetic Suceptibility
   Michael Atanasov       : Ab Initio Ligand Field Theory (pilot matlab implementation)
   Alexander A. Auer      : GIAO ZORA, VPT2 properties, NMR spectrum
   Ute Becker             : Parallelization
   Giovanni Bistoni       : ED, misc. LED, open-shell LED, HFLD
   Martin Brehm           : Molecular dynamics
   Dmytro Bykov           : SCF Hessian
   Vijay G. Chilkuri      : MRCI spin determinant printing, contributions to CSF-ICE
   Dipayan Datta          : RHF DLPNO-CCSD density
   Achintya Kumar Dutta   : EOM-CC, STEOM-CC
   Dmitry Ganyushin       : Spin-Orbit,Spin-Spin,Magnetic field MRCI
   Miquel Garcia          : C-PCM and meta-GGA Hessian, CC/C-PCM, Gaussian charge scheme
   Yang Guo               : DLPNO-NEVPT2, F12-NEVPT2, CIM, IAO-localization
   Andreas Hansen         : Spin unrestricted coupled pair/coupled cluster methods
   Benjamin Helmich-Paris : MC-RPA, TRAH-SCF, COSX integrals
   Lee Huntington         : MR-EOM, pCC
   Robert Izsak           : Overlap fitted RIJCOSX, COSX-SCS-MP3, EOM
   Marcus Kettner         : VPT2
   Christian Kollmar      : KDIIS, OOCD, Brueckner-CCSD(T), CCSD density, CASPT2, CASPT2-K
   Simone Kossmann        : Meta GGA functionals, TD-DFT gradient, OOMP2, MP2 Hessian
   Martin Krupicka        : Initial AUTO-CI
   Lucas Lang             : DCDCAS
   Marvin Lechner         : AUTO-CI (C++ implementation), FIC-MRCC
   Dagmar Lenk            : GEPOL surface, SMD
   Dimitrios Liakos       : Extrapolation schemes; Compound Job, initial MDCI parallelization
   Dimitrios Manganas     : Further ROCIS development; embedding schemes
   Dimitrios Pantazis     : SARC Basis sets
   Anastasios Papadopoulos: AUTO-CI, single reference methods and gradients
   Taras Petrenko         : DFT Hessian,TD-DFT gradient, ASA, ECA, R-Raman, ABS, FL, XAS/XES, NRVS
   Peter Pinski           : DLPNO-MP2, DLPNO-MP2 Gradient
   Christoph Reimann      : Effective Core Potentials
   Marius Retegan         : Local ZFS, SOC
   Christoph Riplinger    : Optimizer, TS searches, QM/MM, DLPNO-CCSD(T), (RO)-DLPNO pert. Triples
   Tobias Risthaus        : Range-separated hybrids, TD-DFT gradient, RPA, STAB
   Michael Roemelt        : Original ROCIS implementation
   Masaaki Saitow         : Open-shell DLPNO-CCSD energy and density
   Barbara Sandhoefer     : DKH picture change effects
   Avijit Sen             : IP-ROCIS
   Kantharuban Sivalingam : CASSCF convergence, NEVPT2, FIC-MRCI
   Bernardo de Souza      : ESD, SOC TD-DFT
   Georgi Stoychev        : AutoAux, RI-MP2 NMR, DLPNO-MP2 response
   Willem Van den Heuvel  : Paramagnetic NMR
   Boris Wezisla          : Elementary symmetry handling
   Frank Wennmohs         : Technical directorship


 We gratefully acknowledge several colleagues who have allowed us to
 interface, adapt or use parts of their codes:
   Stefan Grimme, W. Hujo, H. Kruse, P. Pracht,  : VdW corrections, initial TS optimization,
                  C. Bannwarth, S. Ehlert          DFT functionals, gCP, sTDA/sTD-DF
   Ed Valeev, F. Pavosevic, A. Kumar             : LibInt (2-el integral package), F12 methods
   Garnet Chan, S. Sharma, J. Yang, R. Olivares  : DMRG
   Ulf Ekstrom                                   : XCFun DFT Library
   Mihaly Kallay                                 : mrcc  (arbitrary order and MRCC methods)
   Jiri Pittner, Ondrej Demel                    : Mk-CCSD
   Frank Weinhold                                : gennbo (NPA and NBO analysis)
   Christopher J. Cramer and Donald G. Truhlar   : smd solvation model
   Lars Goerigk                                  : TD-DFT with DH, B97 family of functionals
   V. Asgeirsson, H. Jonsson                     : NEB implementation
   FAccTs GmbH                                   : IRC, NEB, NEB-TS, DLPNO-Multilevel, CI-OPT
                                                   MM, QMMM, 2- and 3-layer-ONIOM, Crystal-QMMM,
                                                   LR-CPCM, SF, NACMEs, symmetry and pop. for TD-DFT,
                                                   nearIR, NL-DFT gradient (VV10), updates on ESD,
                                                   ML-optimized integration grids
   S Lehtola, MJT Oliveira, MAL Marques          : LibXC Library
   Liviu Ungur et al                             : ANISO software


 Your calculation uses the libint2 library for the computation of 2-el integrals
 For citations please refer to: http://libint.valeyev.net

 Your ORCA version has been built with support for libXC version: 5.1.0
 For citations please refer to: https://tddft.org/programs/libxc/

 This ORCA versions uses:
   CBLAS   interface :  Fast vector & matrix operations
   LAPACKE interface :  Fast linear algebra routines
   SCALAPACK package :  Parallel linear algebra routines
   Shared memory     :  Shared parallel matrices
   BLAS/LAPACK       :  OpenBLAS 0.3.15  USE64BITINT DYNAMIC_ARCH NO_AFFINITY Haswell SINGLE_THREADED
        Core in use  :  Haswell
   Copyright (c) 2011-2014, The OpenBLAS Project




***************************************
The coordinates will be read from file: c2h2f42.xyz
***************************************


Your calculation utilizes the geometrical counterpoise correction gCP
Please cite in your paper:
H.Kruse, S. Grimme J.Chem.Phys., 136, (2012), 154101 
   

Your calculation utilizes the atom-pairwise dispersion correction
with the Becke-Johnson damping scheme (D3BJ)
Cite in your paper:
S.Grimme, S.Ehrlich, L.Goerigk, J Comput Chem, (2011), 32, 1456–1465 
S.Grimme, J.Antony, S.Ehrlich and H.Krieg, J.Chem.Phys., 132, (2010), 154104 
   

Your calculation employs the composite approach PBEh-3c.
Please cite in your paper:
S. Grimme, J. G. Brandenburg, C. Bannwarth, A. Hansen J.Chem.Phys., 143, (2015), 054107 
   

================================================================================

----- Orbital basis set information -----
Your calculation utilizes the basis: def2-mSVP

----- AuxJ basis set information -----
Your calculation utilizes the auxiliary basis: def2/J
   F. Weigend, Phys. Chem. Chem. Phys. 8, 1057 (2006).

================================================================================
                                        WARNINGS
                       Please study these warnings very carefully!
================================================================================


INFO   : the flag for use of the SHARK integral package has been found!

================================================================================
                                       INPUT FILE
================================================================================
NAME = pbeh-3c.inp
|  1> ! PBEh-3c def2/J TightSCF DefGrid3
|  2> 
|  3> %maxcore 60000
|  4> 
|  5> %pal
|  6> nprocs 4
|  7> end
|  8> 
|  9> *xyzfile 1 1 c2h2f42.xyz
| 10> 
| 11>                          ****END OF INPUT****
================================================================================

                       ****************************
                       * Single Point Calculation *
                       ****************************

---------------------------------
CARTESIAN COORDINATES (ANGSTROEM)
---------------------------------
  C     -0.296888   -0.716299   -0.328312
  H      0.316618   -1.479568   -0.809354
  F     -0.293450   -1.049719    1.097246
  F     -1.543100   -0.725253   -0.713642
  C      0.296888    0.716299   -0.328312
  H     -0.316618    1.479568   -0.809354
  F      0.293450    1.049719    1.097246
  F      1.543100    0.725253   -0.713642
  H      0.000000    0.000000    1.508124

----------------------------
CARTESIAN COORDINATES (A.U.)
----------------------------
  NO LB      ZA    FRAG     MASS         X           Y           Z
   0 C     6.0000    0    12.011   -0.561037   -1.353610   -0.620419
   1 H     1.0000    0     1.008    0.598321   -2.795978   -1.529458
   2 F     9.0000    0    18.998   -0.554541   -1.983682    2.073494
   3 F     9.0000    0    18.998   -2.916036   -1.370530   -1.348588
   4 C     6.0000    0    12.011    0.561037    1.353610   -0.620419
   5 H     1.0000    0     1.008   -0.598321    2.795978   -1.529458
   6 F     9.0000    0    18.998    0.554541    1.983682    2.073494
   7 F     9.0000    0    18.998    2.916036    1.370530   -1.348588
   8 H     1.0000    0     1.008    0.000000    0.000000    2.849941

--------------------------------
INTERNAL COORDINATES (ANGSTROEM)
--------------------------------
 C      0   0   0     0.000000000000     0.00000000     0.00000000
 H      1   0   0     1.091040983692     0.00000000     0.00000000
 F      1   2   0     1.464034023496   105.58528286     0.00000000
 F      1   2   3     1.304455339197   113.71346152   243.29230316
 C      1   2   3     1.550776801122   115.52868407   111.97650056
 H      5   1   2     1.091040983692   115.52868407   121.50211987
 F      5   1   2     1.464034023496   102.09224761   235.50710706
 F      5   1   2     1.304455339197   111.84732648   349.30834330
 H      3   1   2     1.164836433231    97.97969799   129.51920087

---------------------------
INTERNAL COORDINATES (A.U.)
---------------------------
 C      0   0   0     0.000000000000     0.00000000     0.00000000
 H      1   0   0     2.061768660062     0.00000000     0.00000000
 F      1   2   0     2.766623355150   105.58528286     0.00000000
 F      1   2   3     2.465063345014   113.71346152   243.29230316
 C      1   2   3     2.930543448959   115.52868407   111.97650056
 H      5   1   2     2.061768660062   115.52868407   121.50211987
 F      5   1   2     2.766623355150   102.09224761   235.50710706
 F      5   1   2     2.465063345014   111.84732648   349.30834330
 H      3   1   2     2.201221849621    97.97969799   129.51920087

---------------------
BASIS SET INFORMATION
---------------------
There are 3 groups of distinct atoms

 Group   1 Type C   : 8s4p1d contracted to 4s2p1d pattern {5111/31/1}
 Group   2 Type H   : 4s contracted to 2s pattern {31}
 Group   3 Type F   : 8s4p1d contracted to 4s2p1d pattern {5111/31/1}

Atom   0C    basis set group =>   1
Atom   1H    basis set group =>   2
Atom   2F    basis set group =>   3
Atom   3F    basis set group =>   3
Atom   4C    basis set group =>   1
Atom   5H    basis set group =>   2
Atom   6F    basis set group =>   3
Atom   7F    basis set group =>   3
Atom   8H    basis set group =>   2
---------------------------------
AUXILIARY/J BASIS SET INFORMATION
---------------------------------
There are 3 groups of distinct atoms

 Group   1 Type C   : 12s5p4d2f1g contracted to 6s4p3d1f1g pattern {711111/2111/211/2/1}
 Group   2 Type H   : 5s2p1d contracted to 3s1p1d pattern {311/2/1}
 Group   3 Type F   : 12s5p4d2f1g contracted to 6s4p3d1f1g pattern {711111/2111/211/2/1}

Atom   0C    basis set group =>   1
Atom   1H    basis set group =>   2
Atom   2F    basis set group =>   3
Atom   3F    basis set group =>   3
Atom   4C    basis set group =>   1
Atom   5H    basis set group =>   2
Atom   6F    basis set group =>   3
Atom   7F    basis set group =>   3
Atom   8H    basis set group =>   2


           ************************************************************
           *        Program running with 4 parallel MPI-processes     *
           *              working on a common directory               *
           ************************************************************
------------------------------------------------------------------------------
                           ORCA GTO INTEGRAL CALCULATION
                           -- RI-GTO INTEGRALS CHOSEN --
------------------------------------------------------------------------------
------------------------------------------------------------------------------
                   ___                                                        
                  /   \      - P O W E R E D   B Y -                         
                 /     \                                                     
                 |  |  |   _    _      __       _____    __    __             
                 |  |  |  | |  | |    /  \     |  _  \  |  |  /  |          
                  \  \/   | |  | |   /    \    | | | |  |  | /  /          
                 / \  \   | |__| |  /  /\  \   | |_| |  |  |/  /          
                |  |  |   |  __  | /  /__\  \  |    /   |      \           
                |  |  |   | |  | | |   __   |  |    \   |  |\   \          
                \     /   | |  | | |  |  |  |  | |\  \  |  | \   \       
                 \___/    |_|  |_| |__|  |__|  |_| \__\ |__|  \__/        
                                                                              
                      - O R C A' S   B I G   F R I E N D -                    
                                      &                                       
                       - I N T E G R A L  F E E D E R -                       
                                                                              
 v1 FN, 2020, v2 2021                                                         
------------------------------------------------------------------------------


Reading SHARK input file pbeh-3c.SHARKINP.tmp ... ok
----------------------
SHARK INTEGRAL PACKAGE
----------------------

Number of atoms                             ...      9
Number of basis functions                   ...     96
Number of shells                            ...     48
Maximum angular momentum                    ...      2
Integral batch strategy                     ... SHARK/LIBINT Hybrid
RI-J (if used) integral strategy            ... SPLIT-RIJ (Revised 2003 algorithm where possible)
Printlevel                                  ...      1
Contraction scheme used                     ... SEGMENTED contraction
Coulomb Range Separation                    ... NOT USED
Exchange Range Separation                   ... NOT USED
Finite Nucleus Model                        ... NOT USED
Auxiliary Coulomb fitting basis             ... AVAILABLE
   # of basis functions in Aux-J            ...    327
   # of shells in Aux-J                     ...    105
   Maximum angular momentum in Aux-J        ...      4
Auxiliary J/K fitting basis                 ... NOT available
Auxiliary Correlation fitting basis         ... NOT available
Auxiliary 'external' fitting basis          ... NOT available
Integral threshold                          ...     2.500000e-11
Primitive cut-off                           ...     2.500000e-12
Primitive pair pre-selection threshold      ...     2.500000e-12

Calculating pre-screening integrals         ... done (  0.1 sec) Dimension = 48
Organizing shell pair data                  ... done (  0.0 sec)
Shell pair information
Total number of shell pairs                 ...      1176
Shell pairs after pre-screening             ...      1098
Total number of primitive shell pairs       ...      4182
Primitive shell pairs kept                  ...      2959
          la=0 lb=0:    401 shell pairs
          la=1 lb=0:    346 shell pairs
          la=1 lb=1:     78 shell pairs
          la=2 lb=0:    180 shell pairs
          la=2 lb=1:     72 shell pairs
          la=2 lb=2:     21 shell pairs

Calculating one electron integrals          ... done (  0.0 sec)
Calculating RI/J V-Matrix + Cholesky decomp.... done (  0.7 sec)
Calculating Nuclear repulsion               ... done (  0.0 sec) ENN=    281.926517058934 Eh

SHARK setup successfully completed in   2.3 seconds

Maximum memory used throughout the entire GTOINT-calculation: 9.8 MB


           ************************************************************
           *        Program running with 4 parallel MPI-processes     *
           *              working on a common directory               *
           ************************************************************
-------------------------------------------------------------------------------
                                 ORCA SCF
-------------------------------------------------------------------------------

------------
SCF SETTINGS
------------
Hamiltonian:
 Density Functional     Method          .... DFT(GTOs)
 Exchange Functional    Exchange        .... PBE
   PBE kappa parameter   XKappa         ....  1.024500
   PBE mue parameter    XMuePBE         ....  0.123457
 Correlation Functional Correlation     .... PBE
   PBE beta parameter  CBetaPBE         ....  0.030000
 LDA part of GGA corr.  LDAOpt          .... PW91-LDA
 Gradients option       PostSCFGGA      .... off
 Hybrid DFT is turned on
   Fraction HF Exchange ScalHFX         ....  0.420000
   Scaling of DF-GGA-X  ScalDFX         ....  0.580000
   Scaling of DF-GGA-C  ScalDFC         ....  1.000000
   Scaling of DF-LDA-C  ScalLDAC        ....  1.000000
   Perturbative correction              ....  0.000000
   Density functional embedding theory  .... OFF
 RI-approximation to the Coulomb term is turned on
   Number of AuxJ basis functions       .... 327
   RIJ-ON(X) (HFX calculated with O(N)) .... on
   Number of AuxJ basis functions       .... 327
   RIJ-COSX (HFX calculated with COS-X)).... on


General Settings:
 Integral files         IntName         .... pbeh-3c
 Hartree-Fock type      HFTyp           .... RHF
 Total Charge           Charge          ....    1
 Multiplicity           Mult            ....    1
 Number of Electrons    NEL             ....   50
 Basis Dimension        Dim             ....   96
 Nuclear Repulsion      ENuc            ....    281.9265170589 Eh

Convergence Acceleration:
 DIIS                   CNVDIIS         .... on
   Start iteration      DIISMaxIt       ....    12
   Startup error        DIISStart       ....  0.200000
   # of expansion vecs  DIISMaxEq       ....     5
   Bias factor          DIISBfac        ....   1.050
   Max. coefficient     DIISMaxC        ....  10.000
 Trust-Rad. Augm. Hess. CNVTRAH         .... auto
   Auto Start mean grad. ratio tolernc. ....  1.125000
   Auto Start start iteration           ....    20
   Auto Start num. interpolation iter.  ....    10
   Max. Number of Micro iterations      ....    16
   Max. Number of Macro iterations      .... Maxiter - #DIIS iter
   Number of Davidson start vectors     ....     2
   Converg. threshold I  (grad. norm)   ....   1.000e-05
   Converg. threshold II (energy diff.) ....   1.000e-08
   Grad. Scal. Fac. for Micro threshold ....   0.100
   Minimum threshold for Micro iter.    ....   0.010
   NR start threshold (gradient norm)   ....   0.001
   Initial trust radius                 ....   0.400
   Minimum AH scaling param. (alpha)    ....   1.000
   Maximum AH scaling param. (alpha)    .... 1000.000
   Orbital update algorithm             .... Taylor
   White noise on init. David. guess    .... on
   Maximum white noise                  ....   0.010
   Quad. conv. algorithm                .... NR
   COSX micro iterations for RIJONX calc.... off
 SOSCF                  CNVSOSCF        .... on
   Start iteration      SOSCFMaxIt      ....   150
   Startup grad/error   SOSCFStart      ....  0.003300
 Level Shifting         CNVShift        .... on
   Level shift para.    LevelShift      ....    0.2500
   Turn off err/grad.   ShiftErr        ....    0.0010
 Zerner damping         CNVZerner       .... off
 Static damping         CNVDamp         .... on
   Fraction old density DampFac         ....    0.7000
   Max. Damping (<1)    DampMax         ....    0.9800
   Min. Damping (>=0)   DampMin         ....    0.0000
   Turn off err/grad.   DampErr         ....    0.1000
 Fernandez-Rico         CNVRico         .... off

SCF Procedure:
 Maximum # iterations   MaxIter         ....   125
 SCF integral mode      SCFMode         .... Direct
   Integral package                     .... SHARK and LIBINT hybrid scheme
 Reset frequency        DirectResetFreq ....    20
 Integral Threshold     Thresh          ....  2.500e-11 Eh
 Primitive CutOff       TCut            ....  2.500e-12 Eh

Convergence Tolerance:
 Convergence Check Mode ConvCheckMode   .... Total+1el-Energy
 Convergence forced     ConvForced      .... 0
 Energy Change          TolE            ....  1.000e-08 Eh
 1-El. energy change                    ....  1.000e-05 Eh
 Orbital Gradient       TolG            ....  1.000e-05
 Orbital Rotation angle TolX            ....  1.000e-05
 DIIS Error             TolErr          ....  5.000e-07


Diagonalization of the overlap matrix:
Smallest eigenvalue                        ... 6.089e-03
Time for diagonalization                   ...    0.002 sec
Threshold for overlap eigenvalues          ... 1.000e-08
Number of eigenvalues below threshold      ... 0
Time for construction of square roots      ...    0.294 sec
Total time needed                          ...    0.296 sec

--------------------------------
INITIAL GUESS: MINIMAL BASIS EHT
--------------------------------
The minimal basis has 33 functions
EHT matrix was diagonalized
Basis set overlap was calculated now projecting the orbitals
Using GuessMode=FMatrix for the initial guess
C*T matrix was formed
Effective Fockian was calculated
Effective Fockian was diagonalized
Initial density was built
                      ------------------
                      INITIAL GUESS DONE
                      ------------------
-------------------
DFT GRID GENERATION
-------------------

General Integration Accuracy     IntAcc      ... 4.959
Radial Grid Type                 RadialGrid  ... OptM3 with GC (2021)
Angular Grid (max. ang.)         AngularGrid ... 6 (Lebedev-590)
Angular grid pruning method      GridPruning ... 4 (adaptive)
Weight generation scheme         WeightScheme... Becke
Basis function cutoff            BFCut       ... 1.0000e-11
Integration weight cutoff        WCut        ... 1.0000e-14
Angular grids for H and He will be reduced by one unit
Partially contracted basis set               ... off
Rotationally invariant grid construction     ... off

Total number of grid points                  ...   113265
Total number of batches                      ...     1774
Average number of points per batch           ...       63
Average number of grid points per atom       ...    12585
Time for grid setup =    2.955 sec

--------------------
COSX GRID GENERATION
--------------------

GRIDX 1
-------
General Integration Accuracy     IntAcc      ... 4.020
Radial Grid Type                 RadialGrid  ... OptM3 with GC (2021)
Angular Grid (max. ang.)         AngularGrid ... 2 (Lebedev-110)
Angular grid pruning method      GridPruning ... 4 (adaptive)
Weight generation scheme         WeightScheme... Becke
Basis function cutoff            BFCut       ... 1.0000e-11
Integration weight cutoff        WCut        ... 1.0000e-14
Angular grids for H and He will be reduced by one unit
Partially contracted basis set               ... on
Rotationally invariant grid construction     ... off

Total number of grid points                  ...    13420
Total number of batches                      ...      215
Average number of points per batch           ...       62
Average number of grid points per atom       ...     1491
UseSFitting                                  ... on

GRIDX 2
-------
General Integration Accuracy     IntAcc      ... 4.338
Radial Grid Type                 RadialGrid  ... OptM3 with GC (2021)
Angular Grid (max. ang.)         AngularGrid ... 3 (Lebedev-194)
Angular grid pruning method      GridPruning ... 4 (adaptive)
Weight generation scheme         WeightScheme... Becke
Basis function cutoff            BFCut       ... 1.0000e-11
Integration weight cutoff        WCut        ... 1.0000e-14
Angular grids for H and He will be reduced by one unit
Partially contracted basis set               ... on
Rotationally invariant grid construction     ... off

Total number of grid points                  ...    29665
Total number of batches                      ...      469
Average number of points per batch           ...       63
Average number of grid points per atom       ...     3296
UseSFitting                                  ... on

GRIDX 3
-------
General Integration Accuracy     IntAcc      ... 4.871
Radial Grid Type                 RadialGrid  ... OptM3 with GC (2021)
Angular Grid (max. ang.)         AngularGrid ... 4 (Lebedev-302)
Angular grid pruning method      GridPruning ... 4 (adaptive)
Weight generation scheme         WeightScheme... Becke
Basis function cutoff            BFCut       ... 1.0000e-11
Integration weight cutoff        WCut        ... 1.0000e-14
Angular grids for H and He will be reduced by one unit
Partially contracted basis set               ... on
Rotationally invariant grid construction     ... off

Total number of grid points                  ...    54951
Total number of batches                      ...      863
Average number of points per batch           ...       63
Average number of grid points per atom       ...     6106
UseSFitting                                  ... on

Time for X-Grid setup             =    4.006 sec

--------------
SCF ITERATIONS
--------------
ITER       Energy         Delta-E        Max-DP      RMS-DP      [F,P]     Damp
               ***  Starting incremental Fock matrix formation  ***
  0   -474.4079999463   0.000000000000 0.17534606  0.00978489  0.6035431 0.7000
  1   -475.0965919774  -0.688592031153 0.09178080  0.00526491  0.2524965 0.7000
                               ***Turning on DIIS***
  2   -475.3994866681  -0.302894690694 0.04347623  0.00265183  0.1768257 0.7000
  3   -475.6052343921  -0.205747723951 0.03347365  0.00162476  0.1275212 0.7000
  4   -475.7522344353  -0.147000043214 0.07423958  0.00380302  0.0880319 0.0000
  5   -476.0998521572  -0.347617721859 0.00756869  0.00036565  0.0132779 0.0000
  6   -476.1003364313  -0.000484274177 0.00222729  0.00009511  0.0050929 0.0000
                      *** Initiating the SOSCF procedure ***
                           *** Shutting down DIIS ***
                      *** Re-Reading the Fockian *** 
                      *** Removing any level shift *** 
ITER      Energy       Delta-E        Grad      Rot      Max-DP    RMS-DP
  7   -476.10041096  -0.0000745318  0.000270  0.000270  0.000491  0.000029
               *** Restarting incremental Fock matrix formation ***
  8   -476.10038960   0.0000213673  0.000103  0.000099  0.000255  0.000012
  9   -476.10038965  -0.0000000586  0.000094  0.000090  0.000105  0.000006
 10   -476.10038984  -0.0000001888  0.000014  0.000013  0.000029  0.000002
 11   -476.10038985  -0.0000000055  0.000010  0.000006  0.000012  0.000001
                  ***Gradient check signals convergence***
              ***Rediagonalizing the Fockian in SOSCF/NRSCF***

               *****************************************************
               *                     SUCCESS                       *
               *           SCF CONVERGED AFTER  12 CYCLES          *
               *****************************************************

Old exchange energy                            =    -21.553066617 Eh
New exchange energy                            =    -21.553056803 Eh
Exchange energy change after final integration =      0.000009814 Eh
Total energy after final integration           =   -476.100380036 Eh
Final COS-X integration done in                =     1.537 sec

----------------
TOTAL SCF ENERGY
----------------

Total Energy       :         -476.10038004 Eh          -12955.34998 eV

Components:
Nuclear Repulsion  :          281.92651706 Eh            7671.61055 eV
Electronic Energy  :         -758.02689710 Eh          -20626.96052 eV
One Electron Energy:        -1208.35834924 Eh          -32881.10233 eV
Two Electron Energy:          450.33145215 Eh           12254.14180 eV
Max COSX asymmetry :            0.00000188 Eh               0.00005 eV

Virial components:
Potential Energy   :         -949.45024859 Eh          -25835.85473 eV
Kinetic Energy     :          473.34986856 Eh           12880.50476 eV
Virial Ratio       :            2.00581074


DFT components:
N(Alpha)           :       24.999999052640 electrons
N(Beta)            :       24.999999052640 electrons
N(Total)           :       49.999998105279 electrons
E(X)               :      -28.751989923230 Eh       
E(C)               :       -2.323518422267 Eh       
E(XC)              :      -31.075508345497 Eh       
DFET-embed. en.    :        0.000000000000 Eh       

---------------
SCF CONVERGENCE
---------------

  Last Energy change         ...   -1.0944e-09  Tolerance :   1.0000e-08
  Last MAX-Density change    ...    1.3323e-15  Tolerance :   1.0000e-07
  Last RMS-Density change    ...    7.0393e-17  Tolerance :   5.0000e-09
  Last Orbital Gradient      ...    4.6008e-07  Tolerance :   1.0000e-05
  Last Orbital Rotation      ...    6.3009e-07  Tolerance :   1.0000e-05

             **** THE GBW FILE WAS UPDATED (pbeh-3c.gbw) ****
             **** DENSITY pbeh-3c.scfp WAS UPDATED ****
             **** ENERGY FILE WAS UPDATED (pbeh-3c.en.tmp) ****
             **** THE GBW FILE WAS UPDATED (pbeh-3c.gbw) ****
             **** DENSITY pbeh-3c.scfp WAS UPDATED ****
----------------
ORBITAL ENERGIES
----------------

  NO   OCC          E(Eh)            E(eV) 
   0   2.0000     -25.437666      -692.1941 
   1   2.0000     -25.437625      -692.1930 
   2   2.0000     -25.379123      -690.6010 
   3   2.0000     -25.379109      -690.6007 
   4   2.0000     -10.890563      -296.3473 
   5   2.0000     -10.890391      -296.3426 
   6   2.0000      -1.706094       -46.4252 
   7   2.0000      -1.659555       -45.1588 
   8   2.0000      -1.627639       -44.2903 
   9   2.0000      -1.612269       -43.8721 
  10   2.0000      -1.135068       -30.8868 
  11   2.0000      -1.018586       -27.7171 
  12   2.0000      -1.002549       -27.2808 
  13   2.0000      -0.922921       -25.1139 
  14   2.0000      -0.917874       -24.9766 
  15   2.0000      -0.881744       -23.9935 
  16   2.0000      -0.876687       -23.8559 
  17   2.0000      -0.843891       -22.9635 
  18   2.0000      -0.818180       -22.2638 
  19   2.0000      -0.795150       -21.6371 
  20   2.0000      -0.780757       -21.2455 
  21   2.0000      -0.760760       -20.7013 
  22   2.0000      -0.739948       -20.1350 
  23   2.0000      -0.721667       -19.6376 
  24   2.0000      -0.672175       -18.2908 
  25   0.0000      -0.215232        -5.8568 
  26   0.0000      -0.113380        -3.0852 
  27   0.0000      -0.074552        -2.0287 
  28   0.0000      -0.073270        -1.9938 
  29   0.0000      -0.022851        -0.6218 
  30   0.0000      -0.016888        -0.4595 
  31   0.0000       0.015417         0.4195 
  32   0.0000       0.056727         1.5436 
  33   0.0000       0.211046         5.7429 
  34   0.0000       0.241090         6.5604 
  35   0.0000       0.288479         7.8499 
  36   0.0000       0.308537         8.3957 
  37   0.0000       0.308984         8.4079 
  38   0.0000       0.340530         9.2663 
  39   0.0000       0.397855        10.8262 
  40   0.0000       0.531055        14.4507 
  41   0.0000       0.620010        16.8713 
  42   0.0000       0.633250        17.2316 
  43   0.0000       0.658710        17.9244 
  44   0.0000       0.685463        18.6524 
  45   0.0000       0.753811        20.5122 
  46   0.0000       0.784077        21.3358 
  47   0.0000       0.889693        24.2098 
  48   0.0000       0.917990        24.9798 
  49   0.0000       0.935088        25.4450 
  50   0.0000       0.937792        25.5186 
  51   0.0000       0.954342        25.9690 
  52   0.0000       0.958069        26.0704 
  53   0.0000       0.969208        26.3735 
  54   0.0000       0.989807        26.9340 
  55   0.0000       1.003658        27.3109 
  56   0.0000       1.005285        27.3552 
  57   0.0000       1.022723        27.8297 
  58   0.0000       1.036265        28.1982 
  59   0.0000       1.054249        28.6876 
  60   0.0000       1.065303        28.9884 
  61   0.0000       1.089656        29.6510 
  62   0.0000       1.136163        30.9166 
  63   0.0000       1.197278        32.5796 
  64   0.0000       1.200846        32.6767 
  65   0.0000       1.291328        35.1388 
  66   0.0000       1.358500        36.9667 
  67   0.0000       1.411599        38.4116 
  68   0.0000       1.455680        39.6111 
  69   0.0000       1.460536        39.7432 
  70   0.0000       1.531960        41.6867 
  71   0.0000       1.602996        43.6197 
  72   0.0000       1.633203        44.4417 
  73   0.0000       1.647222        44.8232 
  74   0.0000       1.681326        45.7512 
  75   0.0000       1.708934        46.5025 
  76   0.0000       1.826828        49.7105 
  77   0.0000       1.872035        50.9407 
  78   0.0000       1.900151        51.7057 
  79   0.0000       1.902501        51.7697 
  80   0.0000       2.145719        58.3880 
  81   0.0000       2.176100        59.2147 
  82   0.0000       2.340163        63.6791 
  83   0.0000       2.373195        64.5779 
  84   0.0000       2.376903        64.6788 
  85   0.0000       2.509188        68.2785 
  86   0.0000       2.617917        71.2371 
  87   0.0000       2.711268        73.7774 
  88   0.0000       2.787360        75.8479 
  89   0.0000       2.859748        77.8177 
  90   0.0000      13.513395       367.7182 
  91   0.0000      13.806806       375.7023 
  92   0.0000      32.357773       880.4998 
  93   0.0000      32.360018       880.5609 
  94   0.0000      32.646556       888.3580 
  95   0.0000      32.732041       890.6841 

                    ********************************
                    * MULLIKEN POPULATION ANALYSIS *
                    ********************************

-----------------------
MULLIKEN ATOMIC CHARGES
-----------------------
   0 C :    0.446048
   1 H :    0.313367
   2 F :   -0.354376
   3 F :   -0.214505
   4 C :    0.446048
   5 H :    0.313367
   6 F :   -0.354376
   7 F :   -0.214505
   8 H :    0.618932
Sum of atomic charges:    1.0000000

--------------------------------
MULLIKEN REDUCED ORBITAL CHARGES
--------------------------------
  0 C s       :     3.152843  s :     3.152843
      pz      :     0.566046  p :     2.293019
      px      :     0.773453
      py      :     0.953519
      dz2     :     0.027154  d :     0.108091
      dxz     :     0.022307
      dyz     :     0.010322
      dx2y2   :     0.023477
      dxy     :     0.024831
  1 H s       :     0.686633  s :     0.686633
  2 F s       :     3.930258  s :     3.930258
      pz      :     1.597650  p :     5.386837
      px      :     1.952220
      py      :     1.836968
      dz2     :     0.012041  d :     0.037280
      dxz     :     0.003886
      dyz     :     0.012176
      dx2y2   :     0.005098
      dxy     :     0.004079
  3 F s       :     3.906319  s :     3.906319
      pz      :     1.849476  p :     5.275895
      px      :     1.498327
      py      :     1.928091
      dz2     :     0.004219  d :     0.032291
      dxz     :     0.008806
      dyz     :     0.000889
      dx2y2   :     0.008949
      dxy     :     0.009428
  4 C s       :     3.152843  s :     3.152843
      pz      :     0.566046  p :     2.293019
      px      :     0.773453
      py      :     0.953519
      dz2     :     0.027154  d :     0.108091
      dxz     :     0.022307
      dyz     :     0.010322
      dx2y2   :     0.023477
      dxy     :     0.024831
  5 H s       :     0.686633  s :     0.686633
  6 F s       :     3.930258  s :     3.930258
      pz      :     1.597650  p :     5.386837
      px      :     1.952220
      py      :     1.836968
      dz2     :     0.012041  d :     0.037280
      dxz     :     0.003886
      dyz     :     0.012176
      dx2y2   :     0.005098
      dxy     :     0.004079
  7 F s       :     3.906319  s :     3.906319
      pz      :     1.849476  p :     5.275895
      px      :     1.498327
      py      :     1.928091
      dz2     :     0.004219  d :     0.032291
      dxz     :     0.008806
      dyz     :     0.000889
      dx2y2   :     0.008949
      dxy     :     0.009428
  8 H s       :     0.381068  s :     0.381068


                     *******************************
                     * LOEWDIN POPULATION ANALYSIS *
                     *******************************

----------------------
LOEWDIN ATOMIC CHARGES
----------------------
   0 C :    0.285322
   1 H :    0.183336
   2 F :   -0.148041
   3 F :   -0.064119
   4 C :    0.285322
   5 H :    0.183336
   6 F :   -0.148041
   7 F :   -0.064119
   8 H :    0.487006

-------------------------------
LOEWDIN REDUCED ORBITAL CHARGES
-------------------------------
  0 C s       :     2.884569  s :     2.884569
      pz      :     0.674423  p :     2.579796
      px      :     0.870060
      py      :     1.035312
      dz2     :     0.068307  d :     0.250314
      dxz     :     0.051191
      dyz     :     0.023835
      dx2y2   :     0.050401
      dxy     :     0.056580
  1 H s       :     0.816664  s :     0.816664
  2 F s       :     3.728526  s :     3.728526
      pz      :     1.590852  p :     5.330643
      px      :     1.933026
      py      :     1.806765
      dz2     :     0.029046  d :     0.088872
      dxz     :     0.013064
      dyz     :     0.028838
      dx2y2   :     0.011226
      dxy     :     0.006697
  3 F s       :     3.694537  s :     3.694537
      pz      :     1.827254  p :     5.279402
      px      :     1.545285
      py      :     1.906863
      dz2     :     0.012314  d :     0.090180
      dxz     :     0.020440
      dyz     :     0.002668
      dx2y2   :     0.025805
      dxy     :     0.028953
  4 C s       :     2.884569  s :     2.884569
      pz      :     0.674423  p :     2.579796
      px      :     0.870060
      py      :     1.035312
      dz2     :     0.068307  d :     0.250314
      dxz     :     0.051191
      dyz     :     0.023835
      dx2y2   :     0.050401
      dxy     :     0.056580
  5 H s       :     0.816664  s :     0.816664
  6 F s       :     3.728526  s :     3.728526
      pz      :     1.590852  p :     5.330643
      px      :     1.933026
      py      :     1.806765
      dz2     :     0.029046  d :     0.088872
      dxz     :     0.013064
      dyz     :     0.028838
      dx2y2   :     0.011226
      dxy     :     0.006697
  7 F s       :     3.694537  s :     3.694537
      pz      :     1.827254  p :     5.279402
      px      :     1.545285
      py      :     1.906863
      dz2     :     0.012314  d :     0.090180
      dxz     :     0.020440
      dyz     :     0.002668
      dx2y2   :     0.025805
      dxy     :     0.028953
  8 H s       :     0.512994  s :     0.512994


                      *****************************
                      * MAYER POPULATION ANALYSIS *
                      *****************************

  NA   - Mulliken gross atomic population
  ZA   - Total nuclear charge
  QA   - Mulliken gross atomic charge
  VA   - Mayer's total valence
  BVA  - Mayer's bonded valence
  FA   - Mayer's free valence

  ATOM       NA         ZA         QA         VA         BVA        FA
  0 C      5.5540     6.0000     0.4460     3.5722     3.5722    -0.0000
  1 H      0.6866     1.0000     0.3134     0.8615     0.8615     0.0000
  2 F      9.3544     9.0000    -0.3544     1.1021     1.1021     0.0000
  3 F      9.2145     9.0000    -0.2145     1.2001     1.2001     0.0000
  4 C      5.5540     6.0000     0.4460     3.5722     3.5722     0.0000
  5 H      0.6866     1.0000     0.3134     0.8615     0.8615     0.0000
  6 F      9.3544     9.0000    -0.3544     1.1021     1.1021     0.0000
  7 F      9.2145     9.0000    -0.2145     1.2001     1.2001     0.0000
  8 H      0.3811     1.0000     0.6189     0.6148     0.6148     0.0000

  Mayer bond orders larger than 0.100000
B(  0-C ,  1-H ) :   0.8505 B(  0-C ,  2-F ) :   0.7089 B(  0-C ,  3-F ) :   1.1150 
B(  0-C ,  4-C ) :   0.8647 B(  2-F ,  8-H ) :   0.3087 B(  4-C ,  5-H ) :   0.8505 
B(  4-C ,  6-F ) :   0.7089 B(  4-C ,  7-F ) :   1.1150 B(  6-F ,  8-H ) :   0.3087 


-------
TIMINGS
-------

Total SCF time: 0 days 0 hours 1 min 6 sec 

Total time                  ....      66.503 sec
Sum of individual times     ....      60.595 sec  ( 91.1%)

Fock matrix formation       ....      48.210 sec  ( 72.5%)
  Split-RI-J                ....       6.599 sec  ( 13.7% of F)
  Chain of spheres X        ....      16.346 sec  ( 33.9% of F)
  XC integration            ....      11.044 sec  ( 22.9% of F)
    Basis function eval.    ....       2.036 sec  ( 18.4% of XC)
    Density eval.           ....       1.444 sec  ( 13.1% of XC)
    XC-Functional eval.     ....       1.097 sec  (  9.9% of XC)
    XC-Potential eval.      ....       0.793 sec  (  7.2% of XC)
Diagonalization             ....       0.593 sec  (  0.9%)
Density matrix formation    ....       0.068 sec  (  0.1%)
Population analysis         ....       0.134 sec  (  0.2%)
Initial guess               ....       0.006 sec  (  0.0%)
Orbital Transformation      ....       0.000 sec  (  0.0%)
Orbital Orthonormalization  ....       0.000 sec  (  0.0%)
DIIS solution               ....       3.573 sec  (  5.4%)
SOSCF solution              ....       1.050 sec  (  1.6%)
Grid generation             ....       6.961 sec  ( 10.5%)

Maximum memory used throughout the entire SCF-calculation: 49.1 MB


-------------------------------------------------------------------------------
                          DFT DISPERSION CORRECTION                            
                                                                               
                              DFTD3 V3.1  Rev 1                                
                          USING Becke-Johnson damping                          
-------------------------------------------------------------------------------
The PBEh-3c composite method is recognized
Using three-body term ABC
Active option DFTDOPT                   ...         4   

molecular C6(AA) [au] = 583.027776 


            DFT-D V3
 parameters
 s6 scaling factor         :     1.0000 
 a1 scaling factor         :     0.4860 
 s8 scaling factor         :     0.0000 
 a2 scaling factor         :     4.5000 
 Damping factor alpha9(ATM):    16.0000 
 ad hoc parameters k1-k3   :    16.0000     1.3333    -4.0000 

 Edisp/kcal,au: -1.712853495093  -0.002729605501 
 E6   /kcal   :  -1.717486586 
 E8   /kcal   :  -0.000000000 
 E6(ABC)      :   0.004633091 
 % E8         :   0.000000000 
 % E6(ABC)    :  -0.270489609 

-------------------------   ----------------
Dispersion correction           -0.002729606
-------------------------   ----------------

------------------   -----------------
gCP correction             0.045053755
------------------   -----------------

-------------------------   --------------------
FINAL SINGLE POINT ENERGY      -476.058055886602
-------------------------   --------------------


                            ***************************************
                            *     ORCA property calculations      *
                            ***************************************

                                    ---------------------
                                    Active property flags
                                    ---------------------
   (+) Dipole Moment


------------------------------------------------------------------------------
                       ORCA ELECTRIC PROPERTIES CALCULATION
------------------------------------------------------------------------------

Dipole Moment Calculation                       ... on
Quadrupole Moment Calculation                   ... off
Polarizability Calculation                      ... off
GBWName                                         ... pbeh-3c.gbw
Electron density                                ... pbeh-3c.scfp
The origin for moment calculation is the CENTER OF MASS  = ( 0.000000,  0.000000  0.120627)

-------------
DIPOLE MOMENT
-------------
                                X             Y             Z
Electronic contribution:     -0.00000      -0.00000       0.77686
Nuclear contribution   :     -0.00000      -0.00000      -0.75768
                        -----------------------------------------
Total Dipole Moment    :     -0.00000      -0.00000       0.01918
                        -----------------------------------------
Magnitude (a.u.)       :      0.01918
Magnitude (Debye)      :      0.04876



--------------------
Rotational spectrum 
--------------------
 
Rotational constants in cm-1:     0.169993     0.096518     0.077596 
Rotational constants in MHz :  5096.266617  2893.533447  2326.268167 

 Dipole components along the rotational axes: 
x,y,z [a.u.] :     0.000000     0.019184    -0.000000 
x,y,z [Debye]:     0.000000     0.048761    -0.000000 

 

Timings for individual modules:

Sum of individual times         ...       70.286 sec (=   1.171 min)
GTO integral calculation        ...        2.990 sec (=   0.050 min)   4.3 %
SCF iterations                  ...       67.296 sec (=   1.122 min)  95.7 %
                             ****ORCA TERMINATED NORMALLY****
TOTAL RUN TIME: 0 days 0 hours 1 minutes 13 seconds 291 msec
