
                                 *****************
                                 * O   R   C   A *
                                 *****************

                                            #,                                       
                                            ###                                      
                                            ####                                     
                                            #####                                    
                                            ######                                   
                                           ########,                                 
                                     ,,################,,,,,                         
                               ,,#################################,,                 
                          ,,##########################################,,             
                       ,#########################################, ''#####,          
                    ,#############################################,,   '####,        
                  ,##################################################,,,,####,       
                ,###########''''           ''''###############################       
              ,#####''   ,,,,##########,,,,          '''####'''          '####       
            ,##' ,,,,###########################,,,                        '##       
           ' ,,###''''                  '''############,,,                           
         ,,##''                                '''############,,,,        ,,,,,,###''
      ,#''                                            '''#######################'''  
     '                                                          ''''####''''         
             ,#######,   #######,   ,#######,      ##                                
            ,#'     '#,  ##    ##  ,#'     '#,    #''#        ######   ,####,        
            ##       ##  ##   ,#'  ##            #'  '#       #        #'  '#        
            ##       ##  #######   ##           ,######,      #####,   #    #        
            '#,     ,#'  ##    ##  '#,     ,#' ,#      #,         ##   #,  ,#        
             '#######'   ##     ##  '#######'  #'      '#     #####' # '####'        



                  #######################################################
                  #                        -***-                        #
                  #          Department of theory and spectroscopy      #
                  #    Directorship and core code : Frank Neese         #
                  #        Max Planck Institute fuer Kohlenforschung    #
                  #                Kaiser Wilhelm Platz 1               #
                  #                 D-45470 Muelheim/Ruhr               #
                  #                      Germany                        #
                  #                                                     #
                  #                  All rights reserved                #
                  #                        -***-                        #
                  #######################################################


                         Program Version 5.0.3 -  RELEASE  -


 With contributions from (in alphabetic order):
   Daniel Aravena         : Magnetic Suceptibility
   Michael Atanasov       : Ab Initio Ligand Field Theory (pilot matlab implementation)
   Alexander A. Auer      : GIAO ZORA, VPT2 properties, NMR spectrum
   Ute Becker             : Parallelization
   Giovanni Bistoni       : ED, misc. LED, open-shell LED, HFLD
   Martin Brehm           : Molecular dynamics
   Dmytro Bykov           : SCF Hessian
   Vijay G. Chilkuri      : MRCI spin determinant printing, contributions to CSF-ICE
   Dipayan Datta          : RHF DLPNO-CCSD density
   Achintya Kumar Dutta   : EOM-CC, STEOM-CC
   Dmitry Ganyushin       : Spin-Orbit,Spin-Spin,Magnetic field MRCI
   Miquel Garcia          : C-PCM and meta-GGA Hessian, CC/C-PCM, Gaussian charge scheme
   Yang Guo               : DLPNO-NEVPT2, F12-NEVPT2, CIM, IAO-localization
   Andreas Hansen         : Spin unrestricted coupled pair/coupled cluster methods
   Benjamin Helmich-Paris : MC-RPA, TRAH-SCF, COSX integrals
   Lee Huntington         : MR-EOM, pCC
   Robert Izsak           : Overlap fitted RIJCOSX, COSX-SCS-MP3, EOM
   Marcus Kettner         : VPT2
   Christian Kollmar      : KDIIS, OOCD, Brueckner-CCSD(T), CCSD density, CASPT2, CASPT2-K
   Simone Kossmann        : Meta GGA functionals, TD-DFT gradient, OOMP2, MP2 Hessian
   Martin Krupicka        : Initial AUTO-CI
   Lucas Lang             : DCDCAS
   Marvin Lechner         : AUTO-CI (C++ implementation), FIC-MRCC
   Dagmar Lenk            : GEPOL surface, SMD
   Dimitrios Liakos       : Extrapolation schemes; Compound Job, initial MDCI parallelization
   Dimitrios Manganas     : Further ROCIS development; embedding schemes
   Dimitrios Pantazis     : SARC Basis sets
   Anastasios Papadopoulos: AUTO-CI, single reference methods and gradients
   Taras Petrenko         : DFT Hessian,TD-DFT gradient, ASA, ECA, R-Raman, ABS, FL, XAS/XES, NRVS
   Peter Pinski           : DLPNO-MP2, DLPNO-MP2 Gradient
   Christoph Reimann      : Effective Core Potentials
   Marius Retegan         : Local ZFS, SOC
   Christoph Riplinger    : Optimizer, TS searches, QM/MM, DLPNO-CCSD(T), (RO)-DLPNO pert. Triples
   Tobias Risthaus        : Range-separated hybrids, TD-DFT gradient, RPA, STAB
   Michael Roemelt        : Original ROCIS implementation
   Masaaki Saitow         : Open-shell DLPNO-CCSD energy and density
   Barbara Sandhoefer     : DKH picture change effects
   Avijit Sen             : IP-ROCIS
   Kantharuban Sivalingam : CASSCF convergence, NEVPT2, FIC-MRCI
   Bernardo de Souza      : ESD, SOC TD-DFT
   Georgi Stoychev        : AutoAux, RI-MP2 NMR, DLPNO-MP2 response
   Willem Van den Heuvel  : Paramagnetic NMR
   Boris Wezisla          : Elementary symmetry handling
   Frank Wennmohs         : Technical directorship


 We gratefully acknowledge several colleagues who have allowed us to
 interface, adapt or use parts of their codes:
   Stefan Grimme, W. Hujo, H. Kruse, P. Pracht,  : VdW corrections, initial TS optimization,
                  C. Bannwarth, S. Ehlert          DFT functionals, gCP, sTDA/sTD-DF
   Ed Valeev, F. Pavosevic, A. Kumar             : LibInt (2-el integral package), F12 methods
   Garnet Chan, S. Sharma, J. Yang, R. Olivares  : DMRG
   Ulf Ekstrom                                   : XCFun DFT Library
   Mihaly Kallay                                 : mrcc  (arbitrary order and MRCC methods)
   Jiri Pittner, Ondrej Demel                    : Mk-CCSD
   Frank Weinhold                                : gennbo (NPA and NBO analysis)
   Christopher J. Cramer and Donald G. Truhlar   : smd solvation model
   Lars Goerigk                                  : TD-DFT with DH, B97 family of functionals
   V. Asgeirsson, H. Jonsson                     : NEB implementation
   FAccTs GmbH                                   : IRC, NEB, NEB-TS, DLPNO-Multilevel, CI-OPT
                                                   MM, QMMM, 2- and 3-layer-ONIOM, Crystal-QMMM,
                                                   LR-CPCM, SF, NACMEs, symmetry and pop. for TD-DFT,
                                                   nearIR, NL-DFT gradient (VV10), updates on ESD,
                                                   ML-optimized integration grids
   S Lehtola, MJT Oliveira, MAL Marques          : LibXC Library
   Liviu Ungur et al                             : ANISO software


 Your calculation uses the libint2 library for the computation of 2-el integrals
 For citations please refer to: http://libint.valeyev.net

 Your ORCA version has been built with support for libXC version: 5.1.0
 For citations please refer to: https://tddft.org/programs/libxc/

 This ORCA versions uses:
   CBLAS   interface :  Fast vector & matrix operations
   LAPACKE interface :  Fast linear algebra routines
   SCALAPACK package :  Parallel linear algebra routines
   Shared memory     :  Shared parallel matrices
   BLAS/LAPACK       :  OpenBLAS 0.3.15  USE64BITINT DYNAMIC_ARCH NO_AFFINITY Haswell SINGLE_THREADED
        Core in use  :  Haswell
   Copyright (c) 2011-2014, The OpenBLAS Project




***************************************
The coordinates will be read from file: 32.xyz
***************************************


Your calculation utilizes the geometrical counterpoise correction gCP
Please cite in your paper:
H.Kruse, S. Grimme J.Chem.Phys., 136, (2012), 154101 
   

Your calculation utilizes the atom-pairwise dispersion correction
with the Becke-Johnson damping scheme (D3BJ)
Cite in your paper:
S.Grimme, S.Ehrlich, L.Goerigk, J Comput Chem, (2011), 32, 1456–1465 
S.Grimme, J.Antony, S.Ehrlich and H.Krieg, J.Chem.Phys., 132, (2010), 154104 
   

Your calculation employs the composite approach PBEh-3c.
Please cite in your paper:
S. Grimme, J. G. Brandenburg, C. Bannwarth, A. Hansen J.Chem.Phys., 143, (2015), 054107 
   

================================================================================

----- Orbital basis set information -----
Your calculation utilizes the basis: def2-mSVP

----- AuxJ basis set information -----
Your calculation utilizes the auxiliary basis: def2/J
   F. Weigend, Phys. Chem. Chem. Phys. 8, 1057 (2006).

================================================================================
                                        WARNINGS
                       Please study these warnings very carefully!
================================================================================


INFO   : the flag for use of the SHARK integral package has been found!

================================================================================
                                       INPUT FILE
================================================================================
NAME = pbeh-3c.inp
|  1> ! PBEh-3c def2/J TightSCF DefGrid3
|  2> 
|  3> %maxcore 60000
|  4> 
|  5> %pal
|  6> nprocs 4
|  7> end
|  8> 
|  9> *xyzfile 0 1 32.xyz
| 10> 
| 11>                          ****END OF INPUT****
================================================================================

                       ****************************
                       * Single Point Calculation *
                       ****************************

---------------------------------
CARTESIAN COORDINATES (ANGSTROEM)
---------------------------------
  Si     0.426967   -0.095689   -1.749308
  H     -0.615589   -0.532868    1.540994
  N      1.447337    0.479568    1.388678
  H      0.901774   -1.696557    0.856622
  F     -2.457159    0.968582    0.497730
  B      0.446792   -0.511311    0.974919
  F     -0.997295   -2.248546   -0.330919
  B      0.353722   -1.748344   -0.443138
  B      0.854611    1.371198    0.398902
  H     -1.606054    3.138397   -0.962130
  H      2.421244    0.231158    1.216806
  H      1.143855   -2.571279   -0.799704
  H     -0.996255    0.538964   -1.495677
  Al    -1.093218    1.903245   -0.124322
  Li    -1.960671   -0.759350    0.309341
  S      1.729939    1.532834   -1.278796

----------------------------
CARTESIAN COORDINATES (A.U.)
----------------------------
  NO LB      ZA    FRAG     MASS         X           Y           Z
   0 Si   14.0000    0    28.086    0.806851   -0.180826   -3.305713
   1 H     1.0000    0     1.008   -1.163294   -1.006975    2.912056
   2 N     7.0000    0    14.007    2.735071    0.906251    2.624222
   3 H     1.0000    0     1.008    1.704105   -3.206029    1.618782
   4 F     9.0000    0    18.998   -4.643358    1.830355    0.940574
   5 B     5.0000    0    10.810    0.844314   -0.966238    1.842331
   6 F     9.0000    0    18.998   -1.884615   -4.249137   -0.625346
   7 B     5.0000    0    10.810    0.668437   -3.303891   -0.837410
   8 B     5.0000    0    10.810    1.614980    2.591190    0.753815
   9 H     1.0000    0     1.008   -3.035003    5.930710   -1.818163
  10 H     1.0000    0     1.008    4.575489    0.436825    2.299430
  11 H     1.0000    0     1.008    2.161572   -4.859013   -1.511221
  12 H     1.0000    0     1.008   -1.882649    1.018495   -2.826419
  13 Al   13.0000    0    26.982   -2.065883    3.596611   -0.234934
  14 Li    3.0000    0     6.941   -3.705131   -1.434964    0.584570
  15 S    16.0000    0    32.060    3.269112    2.896636   -2.416573

--------------------------------
INTERNAL COORDINATES (ANGSTROEM)
--------------------------------
 Si     0   0   0     0.000000000000     0.00000000     0.00000000
 H      1   0   0     3.479099535937     0.00000000     0.00000000
 N      2   1   0     2.303017424712    67.28099845     0.00000000
 H      2   1   3     2.030991051512    61.92937860   288.47246821
 F      2   1   3     2.595021265695    76.09834046   119.98691366
 B      2   1   3     1.203975426278    44.65702991   328.81575283
 F      4   2   1     2.306817771963    72.27330957   294.86259253
 B      4   2   1     1.411531358134    92.36279708   325.95273856
 B      3   2   1     1.458076966528    87.11053822    47.99564734
 H      5   2   1     2.750212161076   116.76105158   312.51323546
 H      3   2   1     1.019677983336   139.42828095   281.69851838
 H      8   4   2     1.195270163845    92.48094687   188.56044956
 H      1   2   3     1.578820680997    68.18901351   234.45216368
 Al    10   5   2     1.578139926494    36.99114161     0.33864196
 Li     5   2   1     1.807689868778    45.08368515    70.41779913
 S      9   3   2     1.899208645763   117.66723040   233.01933341

---------------------------
INTERNAL COORDINATES (A.U.)
---------------------------
 Si     0   0   0     0.000000000000     0.00000000     0.00000000
 H      1   0   0     6.574545315574     0.00000000     0.00000000
 N      2   1   0     4.352072214355    67.28099845     0.00000000
 H      2   1   3     3.838016867802    61.92937860   288.47246821
 F      2   1   3     4.903879503865    76.09834046   119.98691366
 B      2   1   3     2.275183827637    44.65702991   328.81575283
 F      4   2   1     4.359253829872    72.27330957   294.86259253
 B      4   2   1     2.667407696316    92.36279708   325.95273856
 B      3   2   1     2.755366148917    87.11053822    47.99564734
 H      5   2   1     5.197147794614   116.76105158   312.51323546
 H      3   2   1     1.926912133294   139.42828095   281.69851838
 H      8   4   2     2.258733265715    92.48094687   188.56044956
 H      1   2   3     2.983538701655    68.18901351   234.45216368
 Al    10   5   2     2.982252262080    36.99114161     0.33864196
 Li     5   2   1     3.416038787054    45.08368515    70.41779913
 S      9   3   2     3.588984211667   117.66723040   233.01933341

---------------------
BASIS SET INFORMATION
---------------------
There are 8 groups of distinct atoms

 Group   1 Type Si  : 10s7p1d contracted to 4s3p1d pattern {5311/511/1}
 Group   2 Type H   : 4s contracted to 2s pattern {31}
 Group   3 Type N   : 8s4p1d contracted to 4s2p1d pattern {5111/31/1}
 Group   4 Type F   : 8s4p1d contracted to 4s2p1d pattern {5111/31/1}
 Group   5 Type B   : 8s4p1d contracted to 4s2p1d pattern {5111/31/1}
 Group   6 Type Al  : 10s7p1d contracted to 4s3p1d pattern {5311/511/1}
 Group   7 Type Li  : 7s3p contracted to 3s2p pattern {511/21}
 Group   8 Type S   : 10s7p1d contracted to 4s3p1d pattern {5311/511/1}

Atom   0Si   basis set group =>   1
Atom   1H    basis set group =>   2
Atom   2N    basis set group =>   3
Atom   3H    basis set group =>   2
Atom   4F    basis set group =>   4
Atom   5B    basis set group =>   5
Atom   6F    basis set group =>   4
Atom   7B    basis set group =>   5
Atom   8B    basis set group =>   5
Atom   9H    basis set group =>   2
Atom  10H    basis set group =>   2
Atom  11H    basis set group =>   2
Atom  12H    basis set group =>   2
Atom  13Al   basis set group =>   6
Atom  14Li   basis set group =>   7
Atom  15S    basis set group =>   8
---------------------------------
AUXILIARY/J BASIS SET INFORMATION
---------------------------------
There are 8 groups of distinct atoms

 Group   1 Type Si  : 14s5p5d2f1g contracted to 8s4p3d1f1g pattern {71111111/2111/311/2/1}
 Group   2 Type H   : 5s2p1d contracted to 3s1p1d pattern {311/2/1}
 Group   3 Type N   : 12s5p4d2f1g contracted to 6s4p3d1f1g pattern {711111/2111/211/2/1}
 Group   4 Type F   : 12s5p4d2f1g contracted to 6s4p3d1f1g pattern {711111/2111/211/2/1}
 Group   5 Type B   : 12s5p4d2f1g contracted to 6s4p3d1f1g pattern {711111/2111/211/2/1}
 Group   6 Type Al  : 14s5p5d2f1g contracted to 8s4p3d1f1g pattern {71111111/2111/311/2/1}
 Group   7 Type Li  : 12s5p4d2f1g contracted to 6s4p3d1f1g pattern {711111/2111/211/2/1}
 Group   8 Type S   : 14s5p5d2f1g contracted to 8s4p3d1f1g pattern {71111111/2111/311/2/1}

Atom   0Si   basis set group =>   1
Atom   1H    basis set group =>   2
Atom   2N    basis set group =>   3
Atom   3H    basis set group =>   2
Atom   4F    basis set group =>   4
Atom   5B    basis set group =>   5
Atom   6F    basis set group =>   4
Atom   7B    basis set group =>   5
Atom   8B    basis set group =>   5
Atom   9H    basis set group =>   2
Atom  10H    basis set group =>   2
Atom  11H    basis set group =>   2
Atom  12H    basis set group =>   2
Atom  13Al   basis set group =>   6
Atom  14Li   basis set group =>   7
Atom  15S    basis set group =>   8


           ************************************************************
           *        Program running with 4 parallel MPI-processes     *
           *              working on a common directory               *
           ************************************************************
------------------------------------------------------------------------------
                           ORCA GTO INTEGRAL CALCULATION
                           -- RI-GTO INTEGRALS CHOSEN --
------------------------------------------------------------------------------
------------------------------------------------------------------------------
                   ___                                                        
                  /   \      - P O W E R E D   B Y -                         
                 /     \                                                     
                 |  |  |   _    _      __       _____    __    __             
                 |  |  |  | |  | |    /  \     |  _  \  |  |  /  |          
                  \  \/   | |  | |   /    \    | | | |  |  | /  /          
                 / \  \   | |__| |  /  /\  \   | |_| |  |  |/  /          
                |  |  |   |  __  | /  /__\  \  |    /   |      \           
                |  |  |   | |  | | |   __   |  |    \   |  |\   \          
                \     /   | |  | | |  |  |  |  | |\  \  |  | \   \       
                 \___/    |_|  |_| |__|  |__|  |_| \__\ |__|  \__/        
                                                                              
                      - O R C A' S   B I G   F R I E N D -                    
                                      &                                       
                       - I N T E G R A L  F E E D E R -                       
                                                                              
 v1 FN, 2020, v2 2021                                                         
------------------------------------------------------------------------------


Reading SHARK input file pbeh-3c.SHARKINP.tmp ... ok
----------------------
SHARK INTEGRAL PACKAGE
----------------------

Number of atoms                             ...     16
Number of basis functions                   ...    165
Number of shells                            ...     83
Maximum angular momentum                    ...      2
Integral batch strategy                     ... SHARK/LIBINT Hybrid
RI-J (if used) integral strategy            ... SPLIT-RIJ (Revised 2003 algorithm where possible)
Printlevel                                  ...      1
Contraction scheme used                     ... SEGMENTED contraction
Coulomb Range Separation                    ... NOT USED
Exchange Range Separation                   ... NOT USED
Finite Nucleus Model                        ... NOT USED
Auxiliary Coulomb fitting basis             ... AVAILABLE
   # of basis functions in Aux-J            ...    562
   # of shells in Aux-J                     ...    186
   Maximum angular momentum in Aux-J        ...      4
Auxiliary J/K fitting basis                 ... NOT available
Auxiliary Correlation fitting basis         ... NOT available
Auxiliary 'external' fitting basis          ... NOT available
Integral threshold                          ...     2.500000e-11
Primitive cut-off                           ...     2.500000e-12
Primitive pair pre-selection threshold      ...     2.500000e-12

Calculating pre-screening integrals         ... done (  0.1 sec) Dimension = 83
Organizing shell pair data                  ... done (  0.7 sec)
Shell pair information
Total number of shell pairs                 ...      3486
Shell pairs after pre-screening             ...      3144
Total number of primitive shell pairs       ...     14037
Primitive shell pairs kept                  ...      8602
          la=0 lb=0:   1115 shell pairs
          la=1 lb=0:   1082 shell pairs
          la=1 lb=1:    269 shell pairs
          la=2 lb=0:    429 shell pairs
          la=2 lb=1:    204 shell pairs
          la=2 lb=2:     45 shell pairs

Calculating one electron integrals          ... done (  0.0 sec)
Calculating RI/J V-Matrix + Cholesky decomp.... done (  0.8 sec)
Calculating Nuclear repulsion               ... done (  0.1 sec) ENN=    699.542638163294 Eh

SHARK setup successfully completed in   2.8 seconds

Maximum memory used throughout the entire GTOINT-calculation: 11.9 MB


           ************************************************************
           *        Program running with 4 parallel MPI-processes     *
           *              working on a common directory               *
           ************************************************************
-------------------------------------------------------------------------------
                                 ORCA SCF
-------------------------------------------------------------------------------

------------
SCF SETTINGS
------------
Hamiltonian:
 Density Functional     Method          .... DFT(GTOs)
 Exchange Functional    Exchange        .... PBE
   PBE kappa parameter   XKappa         ....  1.024500
   PBE mue parameter    XMuePBE         ....  0.123457
 Correlation Functional Correlation     .... PBE
   PBE beta parameter  CBetaPBE         ....  0.030000
 LDA part of GGA corr.  LDAOpt          .... PW91-LDA
 Gradients option       PostSCFGGA      .... off
 Hybrid DFT is turned on
   Fraction HF Exchange ScalHFX         ....  0.420000
   Scaling of DF-GGA-X  ScalDFX         ....  0.580000
   Scaling of DF-GGA-C  ScalDFC         ....  1.000000
   Scaling of DF-LDA-C  ScalLDAC        ....  1.000000
   Perturbative correction              ....  0.000000
   Density functional embedding theory  .... OFF
 RI-approximation to the Coulomb term is turned on
   Number of AuxJ basis functions       .... 562
   RIJ-ON(X) (HFX calculated with O(N)) .... on
   Number of AuxJ basis functions       .... 562
   RIJ-COSX (HFX calculated with COS-X)).... on


General Settings:
 Integral files         IntName         .... pbeh-3c
 Hartree-Fock type      HFTyp           .... RHF
 Total Charge           Charge          ....    0
 Multiplicity           Mult            ....    1
 Number of Electrons    NEL             ....   92
 Basis Dimension        Dim             ....  165
 Nuclear Repulsion      ENuc            ....    699.5426381633 Eh

Convergence Acceleration:
 DIIS                   CNVDIIS         .... on
   Start iteration      DIISMaxIt       ....    12
   Startup error        DIISStart       ....  0.200000
   # of expansion vecs  DIISMaxEq       ....     5
   Bias factor          DIISBfac        ....   1.050
   Max. coefficient     DIISMaxC        ....  10.000
 Trust-Rad. Augm. Hess. CNVTRAH         .... auto
   Auto Start mean grad. ratio tolernc. ....  1.125000
   Auto Start start iteration           ....    20
   Auto Start num. interpolation iter.  ....    10
   Max. Number of Micro iterations      ....    16
   Max. Number of Macro iterations      .... Maxiter - #DIIS iter
   Number of Davidson start vectors     ....     2
   Converg. threshold I  (grad. norm)   ....   1.000e-05
   Converg. threshold II (energy diff.) ....   1.000e-08
   Grad. Scal. Fac. for Micro threshold ....   0.100
   Minimum threshold for Micro iter.    ....   0.010
   NR start threshold (gradient norm)   ....   0.001
   Initial trust radius                 ....   0.400
   Minimum AH scaling param. (alpha)    ....   1.000
   Maximum AH scaling param. (alpha)    .... 1000.000
   Orbital update algorithm             .... Taylor
   White noise on init. David. guess    .... on
   Maximum white noise                  ....   0.010
   Quad. conv. algorithm                .... NR
   COSX micro iterations for RIJONX calc.... off
 SOSCF                  CNVSOSCF        .... on
   Start iteration      SOSCFMaxIt      ....   150
   Startup grad/error   SOSCFStart      ....  0.003300
 Level Shifting         CNVShift        .... on
   Level shift para.    LevelShift      ....    0.2500
   Turn off err/grad.   ShiftErr        ....    0.0010
 Zerner damping         CNVZerner       .... off
 Static damping         CNVDamp         .... on
   Fraction old density DampFac         ....    0.7000
   Max. Damping (<1)    DampMax         ....    0.9800
   Min. Damping (>=0)   DampMin         ....    0.0000
   Turn off err/grad.   DampErr         ....    0.1000
 Fernandez-Rico         CNVRico         .... off

SCF Procedure:
 Maximum # iterations   MaxIter         ....   125
 SCF integral mode      SCFMode         .... Direct
   Integral package                     .... SHARK and LIBINT hybrid scheme
 Reset frequency        DirectResetFreq ....    20
 Integral Threshold     Thresh          ....  2.500e-11 Eh
 Primitive CutOff       TCut            ....  2.500e-12 Eh

Convergence Tolerance:
 Convergence Check Mode ConvCheckMode   .... Total+1el-Energy
 Convergence forced     ConvForced      .... 0
 Energy Change          TolE            ....  1.000e-08 Eh
 1-El. energy change                    ....  1.000e-05 Eh
 Orbital Gradient       TolG            ....  1.000e-05
 Orbital Rotation angle TolX            ....  1.000e-05
 DIIS Error             TolErr          ....  5.000e-07


Diagonalization of the overlap matrix:
Smallest eigenvalue                        ... 3.084e-03
Time for diagonalization                   ...    0.005 sec
Threshold for overlap eigenvalues          ... 1.000e-08
Number of eigenvalues below threshold      ... 0
Time for construction of square roots      ...    0.006 sec
Total time needed                          ...    0.012 sec

--------------------------------
INITIAL GUESS: MINIMAL BASIS EHT
--------------------------------
The minimal basis has 68 functions
EHT matrix was diagonalized
Basis set overlap was calculated now projecting the orbitals
Using GuessMode=FMatrix for the initial guess
C*T matrix was formed
Effective Fockian was calculated
Effective Fockian was diagonalized
Initial density was built
                      ------------------
                      INITIAL GUESS DONE
                      ------------------
-------------------
DFT GRID GENERATION
-------------------

General Integration Accuracy     IntAcc      ... 4.959
Radial Grid Type                 RadialGrid  ... OptM3 with GC (2021)
Angular Grid (max. ang.)         AngularGrid ... 6 (Lebedev-590)
Angular grid pruning method      GridPruning ... 4 (adaptive)
Weight generation scheme         WeightScheme... Becke
Basis function cutoff            BFCut       ... 1.0000e-11
Integration weight cutoff        WCut        ... 1.0000e-14
Angular grids for H and He will be reduced by one unit
Partially contracted basis set               ... off
Rotationally invariant grid construction     ... off

Total number of grid points                  ...   197216
Total number of batches                      ...     3091
Average number of points per batch           ...       63
Average number of grid points per atom       ...    12326
Time for grid setup =    5.009 sec

--------------------
COSX GRID GENERATION
--------------------

GRIDX 1
-------
General Integration Accuracy     IntAcc      ... 4.020
Radial Grid Type                 RadialGrid  ... OptM3 with GC (2021)
Angular Grid (max. ang.)         AngularGrid ... 2 (Lebedev-110)
Angular grid pruning method      GridPruning ... 4 (adaptive)
Weight generation scheme         WeightScheme... Becke
Basis function cutoff            BFCut       ... 1.0000e-11
Integration weight cutoff        WCut        ... 1.0000e-14
Angular grids for H and He will be reduced by one unit
Partially contracted basis set               ... on
Rotationally invariant grid construction     ... off

Total number of grid points                  ...    22556
Total number of batches                      ...      362
Average number of points per batch           ...       62
Average number of grid points per atom       ...     1410
UseSFitting                                  ... on

GRIDX 2
-------
General Integration Accuracy     IntAcc      ... 4.338
Radial Grid Type                 RadialGrid  ... OptM3 with GC (2021)
Angular Grid (max. ang.)         AngularGrid ... 3 (Lebedev-194)
Angular grid pruning method      GridPruning ... 4 (adaptive)
Weight generation scheme         WeightScheme... Becke
Basis function cutoff            BFCut       ... 1.0000e-11
Integration weight cutoff        WCut        ... 1.0000e-14
Angular grids for H and He will be reduced by one unit
Partially contracted basis set               ... on
Rotationally invariant grid construction     ... off

Total number of grid points                  ...    51137
Total number of batches                      ...      805
Average number of points per batch           ...       63
Average number of grid points per atom       ...     3196
UseSFitting                                  ... on

GRIDX 3
-------
General Integration Accuracy     IntAcc      ... 4.871
Radial Grid Type                 RadialGrid  ... OptM3 with GC (2021)
Angular Grid (max. ang.)         AngularGrid ... 4 (Lebedev-302)
Angular grid pruning method      GridPruning ... 4 (adaptive)
Weight generation scheme         WeightScheme... Becke
Basis function cutoff            BFCut       ... 1.0000e-11
Integration weight cutoff        WCut        ... 1.0000e-14
Angular grids for H and He will be reduced by one unit
Partially contracted basis set               ... on
Rotationally invariant grid construction     ... off

Total number of grid points                  ...    93877
Total number of batches                      ...     1475
Average number of points per batch           ...       63
Average number of grid points per atom       ...     5867
UseSFitting                                  ... on

Time for X-Grid setup             =    6.479 sec

--------------
SCF ITERATIONS
--------------
ITER       Energy         Delta-E        Max-DP      RMS-DP      [F,P]     Damp
               ***  Starting incremental Fock matrix formation  ***
  0  -1266.1092069051   0.000000000000 0.20555690  0.00847754  0.7168735 0.7000
  1  -1267.0335498098  -0.924342904649 0.11761375  0.00486999  0.2929591 0.7000
                               ***Turning on DIIS***
  2  -1267.5162683199  -0.482718510100 0.07098123  0.00282477  0.1748295 0.7000
  3  -1267.8474430366  -0.331174716766 0.06929772  0.00204039  0.1194812 0.7000
  4  -1268.0851822437  -0.237739207073 0.18966434  0.00496941  0.0828782 0.0000
  5  -1268.6497661384  -0.564583894693 0.03955701  0.00060740  0.0108544 0.0000
  6  -1268.6513165830  -0.001550444650 0.00842305  0.00024797  0.0054878 0.0000
                      *** Initiating the SOSCF procedure ***
                           *** Shutting down DIIS ***
                      *** Re-Reading the Fockian *** 
                      *** Removing any level shift *** 
ITER      Energy       Delta-E        Grad      Rot      Max-DP    RMS-DP
  7  -1268.65174473  -0.0004281468  0.001892  0.001892  0.005821  0.000169
               *** Restarting incremental Fock matrix formation ***
  8  -1268.65185982  -0.0001150911  0.001235  0.006267  0.005576  0.000176
  9  -1268.65191587  -0.0000560487  0.000314  0.002601  0.004720  0.000131
 10  -1268.65192372  -0.0000078505  0.000237  0.000810  0.001748  0.000046
 11  -1268.65192857  -0.0000048534  0.000108  0.000561  0.000471  0.000017
 12  -1268.65192842   0.0000001574  0.000134  0.000402  0.000288  0.000010
 13  -1268.65192894  -0.0000005198  0.000007  0.000024  0.000053  0.000002
 14  -1268.65192894  -0.0000000012  0.000006  0.000013  0.000030  0.000001
                  ***Gradient check signals convergence***
              ***Rediagonalizing the Fockian in SOSCF/NRSCF***

               *****************************************************
               *                     SUCCESS                       *
               *           SCF CONVERGED AFTER  15 CYCLES          *
               *****************************************************

Old exchange energy                            =    -44.532681956 Eh
New exchange energy                            =    -44.532688263 Eh
Exchange energy change after final integration =     -0.000006307 Eh
Total energy after final integration           =  -1268.651935250 Eh
Final COS-X integration done in                =    11.866 sec

----------------
TOTAL SCF ENERGY
----------------

Total Energy       :        -1268.65193525 Eh          -34521.77421 eV

Components:
Nuclear Repulsion  :          699.54263816 Eh           19035.52293 eV
Electronic Energy  :        -1968.19457341 Eh          -53557.29714 eV
One Electron Energy:        -3149.25408983 Eh          -85695.56046 eV
Two Electron Energy:         1181.05951642 Eh           32138.26332 eV
Max COSX asymmetry :            0.00000720 Eh               0.00020 eV

Virial components:
Potential Energy   :        -2533.21046599 Eh          -68932.16122 eV
Kinetic Energy     :         1264.55853074 Eh           34410.38701 eV
Virial Ratio       :            2.00323702


DFT components:
N(Alpha)           :       45.999962674026 electrons
N(Beta)            :       45.999962674026 electrons
N(Total)           :       91.999925348051 electrons
E(X)               :      -59.306209034464 Eh       
E(C)               :       -4.314198967521 Eh       
E(XC)              :      -63.620408001985 Eh       
DFET-embed. en.    :        0.000000000000 Eh       

---------------
SCF CONVERGENCE
---------------

  Last Energy change         ...   -5.3069e-09  Tolerance :   1.0000e-08
  Last MAX-Density change    ...    3.5527e-15  Tolerance :   1.0000e-07
  Last RMS-Density change    ...    6.5077e-17  Tolerance :   5.0000e-09
  Last Orbital Gradient      ...    5.8704e-07  Tolerance :   1.0000e-05
  Last Orbital Rotation      ...    3.1718e-06  Tolerance :   1.0000e-05

             **** THE GBW FILE WAS UPDATED (pbeh-3c.gbw) ****
             **** DENSITY pbeh-3c.scfp WAS UPDATED ****
             **** ENERGY FILE WAS UPDATED (pbeh-3c.en.tmp) ****
             **** THE GBW FILE WAS UPDATED (pbeh-3c.gbw) ****
             **** DENSITY pbeh-3c.scfp WAS UPDATED ****
----------------
ORBITAL ENERGIES
----------------

  NO   OCC          E(Eh)            E(eV) 
   0   2.0000     -89.576235     -2437.4933 
   1   2.0000     -66.764863     -1816.7643 
   2   2.0000     -56.617044     -1540.6281 
   3   2.0000     -25.124999      -683.6860 
   4   2.0000     -25.086855      -682.6480 
   5   2.0000     -14.632956      -398.1830 
   6   2.0000      -8.216023      -223.5694 
   7   2.0000      -7.034937      -191.4304 
   8   2.0000      -7.011036      -190.7800 
   9   2.0000      -6.999115      -190.4556 
  10   2.0000      -6.105733      -166.1454 
  11   2.0000      -6.103573      -166.0867 
  12   2.0000      -6.099874      -165.9860 
  13   2.0000      -5.538949      -150.7225 
  14   2.0000      -4.352906      -118.4486 
  15   2.0000      -3.829445      -104.2045 
  16   2.0000      -3.829071      -104.1943 
  17   2.0000      -3.827388      -104.1485 
  18   2.0000      -2.845204       -77.4219 
  19   2.0000      -2.842032       -77.3356 
  20   2.0000      -2.837113       -77.2018 
  21   2.0000      -2.142446       -58.2989 
  22   2.0000      -1.339053       -36.4375 
  23   2.0000      -1.285757       -34.9872 
  24   2.0000      -0.977296       -26.5936 
  25   2.0000      -0.810153       -22.0454 
  26   2.0000      -0.714331       -19.4379 
  27   2.0000      -0.625145       -17.0111 
  28   2.0000      -0.603963       -16.4347 
  29   2.0000      -0.585710       -15.9380 
  30   2.0000      -0.561992       -15.2926 
  31   2.0000      -0.556981       -15.1562 
  32   2.0000      -0.531356       -14.4589 
  33   2.0000      -0.519745       -14.1430 
  34   2.0000      -0.507429       -13.8078 
  35   2.0000      -0.502183       -13.6651 
  36   2.0000      -0.476430       -12.9643 
  37   2.0000      -0.449432       -12.2297 
  38   2.0000      -0.434350       -11.8193 
  39   2.0000      -0.407457       -11.0875 
  40   2.0000      -0.380735       -10.3603 
  41   2.0000      -0.370416       -10.0795 
  42   2.0000      -0.342394        -9.3170 
  43   2.0000      -0.318729        -8.6731 
  44   2.0000      -0.283386        -7.7113 
  45   2.0000      -0.246085        -6.6963 
  46   0.0000      -0.048889        -1.3303 
  47   0.0000      -0.012119        -0.3298 
  48   0.0000      -0.006345        -0.1727 
  49   0.0000       0.003862         0.1051 
  50   0.0000       0.030928         0.8416 
  51   0.0000       0.044640         1.2147 
  52   0.0000       0.073148         1.9905 
  53   0.0000       0.078658         2.1404 
  54   0.0000       0.091820         2.4986 
  55   0.0000       0.102162         2.7800 
  56   0.0000       0.112537         3.0623 
  57   0.0000       0.126915         3.4535 
  58   0.0000       0.141512         3.8507 
  59   0.0000       0.165831         4.5125 
  60   0.0000       0.171562         4.6684 
  61   0.0000       0.176174         4.7939 
  62   0.0000       0.193689         5.2706 
  63   0.0000       0.199396         5.4258 
  64   0.0000       0.218796         5.9537 
  65   0.0000       0.233855         6.3635 
  66   0.0000       0.265216         7.2169 
  67   0.0000       0.271287         7.3821 
  68   0.0000       0.291950         7.9444 
  69   0.0000       0.303213         8.2508 
  70   0.0000       0.309223         8.4144 
  71   0.0000       0.327319         8.9068 
  72   0.0000       0.334053         9.0900 
  73   0.0000       0.352333         9.5875 
  74   0.0000       0.355307         9.6684 
  75   0.0000       0.363897         9.9021 
  76   0.0000       0.389765        10.6061 
  77   0.0000       0.422602        11.4996 
  78   0.0000       0.432634        11.7726 
  79   0.0000       0.436896        11.8885 
  80   0.0000       0.454722        12.3736 
  81   0.0000       0.471311        12.8250 
  82   0.0000       0.486322        13.2335 
  83   0.0000       0.492408        13.3991 
  84   0.0000       0.495284        13.4774 
  85   0.0000       0.516028        14.0418 
  86   0.0000       0.543219        14.7817 
  87   0.0000       0.562895        15.3171 
  88   0.0000       0.568189        15.4612 
  89   0.0000       0.574648        15.6370 
  90   0.0000       0.590128        16.0582 
  91   0.0000       0.611018        16.6266 
  92   0.0000       0.624864        17.0034 
  93   0.0000       0.634936        17.2775 
  94   0.0000       0.649367        17.6702 
  95   0.0000       0.672443        18.2981 
  96   0.0000       0.711158        19.3516 
  97   0.0000       0.729049        19.8384 
  98   0.0000       0.753382        20.5006 
  99   0.0000       0.756607        20.5883 
 100   0.0000       0.765812        20.8388 
 101   0.0000       0.789698        21.4888 
 102   0.0000       0.817981        22.2584 
 103   0.0000       0.831450        22.6249 
 104   0.0000       0.885754        24.1026 
 105   0.0000       0.890665        24.2362 
 106   0.0000       0.906551        24.6685 
 107   0.0000       0.954626        25.9767 
 108   0.0000       0.977743        26.6058 
 109   0.0000       1.002274        27.2733 
 110   0.0000       1.053245        28.6603 
 111   0.0000       1.062756        28.9191 
 112   0.0000       1.118241        30.4289 
 113   0.0000       1.141427        31.0598 
 114   0.0000       1.175708        31.9927 
 115   0.0000       1.187151        32.3040 
 116   0.0000       1.195433        32.5294 
 117   0.0000       1.226787        33.3826 
 118   0.0000       1.240866        33.7657 
 119   0.0000       1.246356        33.9151 
 120   0.0000       1.259439        34.2711 
 121   0.0000       1.275831        34.7171 
 122   0.0000       1.289592        35.0916 
 123   0.0000       1.313613        35.7452 
 124   0.0000       1.316846        35.8332 
 125   0.0000       1.338182        36.4138 
 126   0.0000       1.352230        36.7960 
 127   0.0000       1.360230        37.0137 
 128   0.0000       1.377998        37.4972 
 129   0.0000       1.403476        38.1905 
 130   0.0000       1.417661        38.5765 
 131   0.0000       1.483741        40.3747 
 132   0.0000       1.491003        40.5722 
 133   0.0000       1.528773        41.6000 
 134   0.0000       1.592708        43.3398 
 135   0.0000       1.626794        44.2673 
 136   0.0000       1.671071        45.4721 
 137   0.0000       1.774091        48.2755 
 138   0.0000       1.820811        49.5468 
 139   0.0000       1.896302        51.6010 
 140   0.0000       1.915769        52.1307 
 141   0.0000       1.962830        53.4113 
 142   0.0000       2.009711        54.6870 
 143   0.0000       2.028732        55.2046 
 144   0.0000       2.060108        56.0584 
 145   0.0000       2.079005        56.5726 
 146   0.0000       2.092059        56.9278 
 147   0.0000       2.152556        58.5740 
 148   0.0000       2.229412        60.6654 
 149   0.0000       2.234056        60.7918 
 150   0.0000       2.298685        62.5504 
 151   0.0000       2.348146        63.8963 
 152   0.0000       2.398362        65.2627 
 153   0.0000       2.525522        68.7229 
 154   0.0000       2.618294        71.2474 
 155   0.0000       2.711154        73.7743 
 156   0.0000       2.752473        74.8986 
 157   0.0000       2.978033        81.0364 
 158   0.0000       3.176326        86.4322 
 159   0.0000       9.218380       250.8449 
 160   0.0000       9.341184       254.1865 
 161   0.0000       9.409522       256.0461 
 162   0.0000      19.243877       523.6525 
 163   0.0000      32.632057       887.9634 
 164   0.0000      32.728775       890.5952 

                    ********************************
                    * MULLIKEN POPULATION ANALYSIS *
                    ********************************

-----------------------
MULLIKEN ATOMIC CHARGES
-----------------------
   0 Si:    0.093517
   1 H :    0.014437
   2 N :   -0.552739
   3 H :    0.087759
   4 F :   -0.540616
   5 B :   -0.169364
   6 F :   -0.386903
   7 B :    0.109151
   8 B :   -0.030591
   9 H :   -0.085606
  10 H :    0.349981
  11 H :    0.079686
  12 H :   -0.114019
  13 Al:    0.761831
  14 Li:    0.687987
  15 S :   -0.304512
Sum of atomic charges:   -0.0000000

--------------------------------
MULLIKEN REDUCED ORBITAL CHARGES
--------------------------------
  0 Sis       :     5.540297  s :     5.540297
      pz      :     2.939441  p :     8.182914
      px      :     2.551154
      py      :     2.692318
      dz2     :     0.030408  d :     0.183272
      dxz     :     0.017549
      dyz     :     0.039115
      dx2y2   :     0.048745
      dxy     :     0.047455
  1 H s       :     0.985563  s :     0.985563
  2 N s       :     3.590862  s :     3.590862
      pz      :     1.476533  p :     3.934428
      px      :     1.166401
      py      :     1.291494
      dz2     :     0.006138  d :     0.027448
      dxz     :     0.005891
      dyz     :     0.005763
      dx2y2   :     0.005489
      dxy     :     0.004167
  3 H s       :     0.912241  s :     0.912241
  4 F s       :     3.920735  s :     3.920735
      pz      :     1.901259  p :     5.608265
      px      :     1.850414
      py      :     1.856592
      dz2     :     0.001709  d :     0.011615
      dxz     :     0.002820
      dyz     :     0.000889
      dx2y2   :     0.002483
      dxy     :     0.003715
  5 B s       :     3.033560  s :     3.033560
      pz      :     0.625446  p :     2.088833
      px      :     0.851975
      py      :     0.611412
      dz2     :     0.008329  d :     0.046970
      dxz     :     0.007660
      dyz     :     0.006765
      dx2y2   :     0.013437
      dxy     :     0.010779
  6 F s       :     3.908356  s :     3.908356
      pz      :     1.905386  p :     5.465755
      px      :     1.677108
      py      :     1.883261
      dz2     :     0.001797  d :     0.012792
      dxz     :     0.001977
      dyz     :     0.001746
      dx2y2   :     0.002948
      dxy     :     0.004323
  7 B s       :     2.990762  s :     2.990762
      pz      :     0.498970  p :     1.851227
      px      :     0.546818
      py      :     0.805439
      dz2     :     0.010294  d :     0.048859
      dxz     :     0.008409
      dyz     :     0.003934
      dx2y2   :     0.012181
      dxy     :     0.014041
  8 B s       :     3.141082  s :     3.141082
      pz      :     0.564030  p :     1.846862
      px      :     0.800536
      py      :     0.482297
      dz2     :     0.012088  d :     0.042647
      dxz     :     0.009463
      dyz     :     0.010469
      dx2y2   :     0.006177
      dxy     :     0.004450
  9 H s       :     1.085606  s :     1.085606
 10 H s       :     0.650019  s :     0.650019
 11 H s       :     0.920314  s :     0.920314
 12 H s       :     1.114019  s :     1.114019
 13 Als       :     4.914790  s :     4.914790
      pz      :     2.338332  p :     7.120052
      px      :     2.351157
      py      :     2.430563
      dz2     :     0.015851  d :     0.203328
      dxz     :     0.043441
      dyz     :     0.046730
      dx2y2   :     0.052340
      dxy     :     0.044966
 14 Lis       :     2.096888  s :     2.096888
      pz      :     0.058833  p :     0.215125
      px      :     0.048283
      py      :     0.108009
 15 S s       :     5.894454  s :     5.894454
      pz      :     3.328562  p :    10.352597
      px      :     3.566511
      py      :     3.457524
      dz2     :     0.014424  d :     0.057461
      dxz     :     0.014225
      dyz     :     0.008723
      dx2y2   :     0.007328
      dxy     :     0.012762


                     *******************************
                     * LOEWDIN POPULATION ANALYSIS *
                     *******************************

----------------------
LOEWDIN ATOMIC CHARGES
----------------------
   0 Si:    0.149569
   1 H :    0.058063
   2 N :   -0.331582
   3 H :    0.144152
   4 F :   -0.256900
   5 B :   -0.135656
   6 F :   -0.194545
   7 B :   -0.104010
   8 B :   -0.231397
   9 H :   -0.064601
  10 H :    0.268247
  11 H :    0.037383
  12 H :    0.013398
  13 Al:    0.328570
  14 Li:    0.298155
  15 S :    0.021155

-------------------------------
LOEWDIN REDUCED ORBITAL CHARGES
-------------------------------
  0 Sis       :     5.279958  s :     5.279958
      pz      :     2.911890  p :     8.301050
      px      :     2.628240
      py      :     2.760920
      dz2     :     0.043351  d :     0.269423
      dxz     :     0.021786
      dyz     :     0.055933
      dx2y2   :     0.076175
      dxy     :     0.072178
  1 H s       :     0.941937  s :     0.941937
  2 N s       :     3.199354  s :     3.199354
      pz      :     1.525893  p :     4.078999
      px      :     1.207796
      py      :     1.345309
      dz2     :     0.009081  d :     0.053229
      dxz     :     0.010563
      dyz     :     0.010330
      dx2y2   :     0.012458
      dxy     :     0.010797
  3 H s       :     0.855848  s :     0.855848
  4 F s       :     3.708254  s :     3.708254
      pz      :     1.878174  p :     5.523701
      px      :     1.827789
      py      :     1.817738
      dz2     :     0.003545  d :     0.024945
      dxz     :     0.004811
      dyz     :     0.002388
      dx2y2   :     0.006303
      dxy     :     0.007897
  5 B s       :     2.689142  s :     2.689142
      pz      :     0.740222  p :     2.353683
      px      :     0.873929
      py      :     0.739533
      dz2     :     0.015888  d :     0.092830
      dxz     :     0.015226
      dyz     :     0.014287
      dx2y2   :     0.025909
      dxy     :     0.021521
  6 F s       :     3.693112  s :     3.693112
      pz      :     1.894218  p :     5.454789
      px      :     1.682328
      py      :     1.878243
      dz2     :     0.004915  d :     0.046644
      dxz     :     0.008246
      dyz     :     0.003826
      dx2y2   :     0.012518
      dxy     :     0.017138
  7 B s       :     2.750385  s :     2.750385
      pz      :     0.683081  p :     2.242944
      px      :     0.652075
      py      :     0.907788
      dz2     :     0.020333  d :     0.110681
      dxz     :     0.019265
      dyz     :     0.010172
      dx2y2   :     0.029406
      dxy     :     0.031506
  8 B s       :     2.829898  s :     2.829898
      pz      :     0.739049  p :     2.313385
      px      :     0.937414
      py      :     0.636922
      dz2     :     0.025975  d :     0.088114
      dxz     :     0.020199
      dyz     :     0.021362
      dx2y2   :     0.011340
      dxy     :     0.009239
  9 H s       :     1.064601  s :     1.064601
 10 H s       :     0.731753  s :     0.731753
 11 H s       :     0.962617  s :     0.962617
 12 H s       :     0.986602  s :     0.986602
 13 Als       :     4.806607  s :     4.806607
      pz      :     2.410221  p :     7.473231
      px      :     2.539582
      py      :     2.523427
      dz2     :     0.035034  d :     0.391592
      dxz     :     0.081915
      dyz     :     0.077329
      dx2y2   :     0.102787
      dxy     :     0.094527
 14 Lis       :     2.158346  s :     2.158346
      pz      :     0.133937  p :     0.543499
      px      :     0.166160
      py      :     0.243402
 15 S s       :     5.589423  s :     5.589423
      pz      :     3.317996  p :    10.322043
      px      :     3.557402
      py      :     3.446644
      dz2     :     0.017309  d :     0.067380
      dxz     :     0.017548
      dyz     :     0.010451
      dx2y2   :     0.007311
      dxy     :     0.014761


                      *****************************
                      * MAYER POPULATION ANALYSIS *
                      *****************************

  NA   - Mulliken gross atomic population
  ZA   - Total nuclear charge
  QA   - Mulliken gross atomic charge
  VA   - Mayer's total valence
  BVA  - Mayer's bonded valence
  FA   - Mayer's free valence

  ATOM       NA         ZA         QA         VA         BVA        FA
  0 Si    13.9065    14.0000     0.0935     3.2939     3.2939     0.0000
  1 H      0.9856     1.0000     0.0144     0.9599     0.9599    -0.0000
  2 N      7.5527     7.0000    -0.5527     3.0878     3.0878     0.0000
  3 H      0.9122     1.0000     0.0878     0.9271     0.9271    -0.0000
  4 F      9.5406     9.0000    -0.5406     0.8632     0.8632     0.0000
  5 B      5.1694     5.0000    -0.1694     3.6630     3.6630    -0.0000
  6 F      9.3869     9.0000    -0.3869     1.0343     1.0343     0.0000
  7 B      4.8908     5.0000     0.1092     3.2885     3.2885    -0.0000
  8 B      5.0306     5.0000    -0.0306     3.2079     3.2079    -0.0000
  9 H      1.0856     1.0000    -0.0856     0.9840     0.9840    -0.0000
 10 H      0.6500     1.0000     0.3500     0.8473     0.8473    -0.0000
 11 H      0.9203     1.0000     0.0797     0.9624     0.9624    -0.0000
 12 H      1.1140     1.0000    -0.1140     0.9499     0.9499    -0.0000
 13 Al    12.2382    13.0000     0.7618     2.9043     2.9043     0.0000
 14 Li     2.3120     3.0000     0.6880     0.6015     0.6015    -0.0000
 15 S     16.3045    16.0000    -0.3045     2.1855     2.1855    -0.0000

  Mayer bond orders larger than 0.100000
B(  0-Si,  5-B ) :   0.3129 B(  0-Si,  7-B ) :   0.7295 B(  0-Si,  8-B ) :   0.1983 
B(  0-Si, 12-H ) :   0.6807 B(  0-Si, 13-Al) :   0.1687 B(  0-Si, 15-S ) :   1.0549 
B(  1-H ,  5-B ) :   0.8919 B(  2-N ,  5-B ) :   1.1024 B(  2-N ,  8-B ) :   1.0576 
B(  2-N , 10-H ) :   0.8153 B(  3-H ,  5-B ) :   0.5283 B(  3-H ,  7-B ) :   0.3463 
B(  4-F , 13-Al) :   0.5822 B(  4-F , 14-Li) :   0.2540 B(  5-B ,  7-B ) :   0.4630 
B(  5-B ,  8-B ) :   0.2001 B(  6-F ,  7-B ) :   0.7635 B(  6-F , 14-Li) :   0.2021 
B(  7-B , 11-H ) :   0.9422 B(  8-B , 13-Al) :   0.8140 B(  8-B , 15-S ) :   0.9087 
B(  9-H , 13-Al) :   0.9506 B( 12-H , 13-Al) :   0.1988 

-------
TIMINGS
-------

Total SCF time: 0 days 0 hours 2 min 59 sec 

Total time                  ....     179.534 sec
Sum of individual times     ....     169.190 sec  ( 94.2%)

Fock matrix formation       ....     149.268 sec  ( 83.1%)
  Split-RI-J                ....      15.484 sec  ( 10.4% of F)
  Chain of spheres X        ....      75.672 sec  ( 50.7% of F)
  XC integration            ....      31.669 sec  ( 21.2% of F)
    Basis function eval.    ....       6.838 sec  ( 21.6% of XC)
    Density eval.           ....       3.953 sec  ( 12.5% of XC)
    XC-Functional eval.     ....       2.203 sec  (  7.0% of XC)
    XC-Potential eval.      ....       2.804 sec  (  8.9% of XC)
Diagonalization             ....       0.575 sec  (  0.3%)
Density matrix formation    ....       0.321 sec  (  0.2%)
Population analysis         ....       1.693 sec  (  0.9%)
Initial guess               ....       0.245 sec  (  0.1%)
Orbital Transformation      ....       0.000 sec  (  0.0%)
Orbital Orthonormalization  ....       0.000 sec  (  0.0%)
DIIS solution               ....       2.873 sec  (  1.6%)
SOSCF solution              ....       2.726 sec  (  1.5%)
Grid generation             ....      11.488 sec  (  6.4%)

Maximum memory used throughout the entire SCF-calculation: 58.2 MB


-------------------------------------------------------------------------------
                          DFT DISPERSION CORRECTION                            
                                                                               
                              DFTD3 V3.1  Rev 1                                
                          USING Becke-Johnson damping                          
-------------------------------------------------------------------------------
The PBEh-3c composite method is recognized
Using three-body term ABC
Active option DFTDOPT                   ...         4   

molecular C6(AA) [au] = 6315.919564 


            DFT-D V3
 parameters
 s6 scaling factor         :     1.0000 
 a1 scaling factor         :     0.4860 
 s8 scaling factor         :     0.0000 
 a2 scaling factor         :     4.5000 
 Damping factor alpha9(ATM):    16.0000 
 ad hoc parameters k1-k3   :    16.0000     1.3333    -4.0000 

 Edisp/kcal,au: -7.027172352067  -0.011198510768 
 E6   /kcal   :  -7.069437092 
 E8   /kcal   :  -0.000000000 
 E6(ABC)      :   0.042264740 
 % E8         :   0.000000000 
 % E6(ABC)    :  -0.601447318 

-------------------------   ----------------
Dispersion correction           -0.011198511
-------------------------   ----------------

------------------   -----------------
gCP correction             0.027025169
------------------   -----------------

-------------------------   --------------------
FINAL SINGLE POINT ENERGY     -1268.636108591440
-------------------------   --------------------


                            ***************************************
                            *     ORCA property calculations      *
                            ***************************************

                                    ---------------------
                                    Active property flags
                                    ---------------------
   (+) Dipole Moment


------------------------------------------------------------------------------
                       ORCA ELECTRIC PROPERTIES CALCULATION
------------------------------------------------------------------------------

Dipole Moment Calculation                       ... on
Quadrupole Moment Calculation                   ... off
Polarizability Calculation                      ... off
GBWName                                         ... pbeh-3c.gbw
Electron density                                ... pbeh-3c.scfp
The origin for moment calculation is the CENTER OF MASS  = (-0.019011,  0.659790 -0.596928)

-------------
DIPOLE MOMENT
-------------
                                X             Y             Z
Electronic contribution:     -6.62730      -1.17038       1.38443
Nuclear contribution   :      5.77144       0.05905      -0.65344
                        -----------------------------------------
Total Dipole Moment    :     -0.85586      -1.11133       0.73099
                        -----------------------------------------
Magnitude (a.u.)       :      1.58174
Magnitude (Debye)      :      4.02046



--------------------
Rotational spectrum 
--------------------
 
Rotational constants in cm-1:     0.035879     0.030428     0.023408 
Rotational constants in MHz :  1075.612873   912.219003   701.756555 

 Dipole components along the rotational axes: 
x,y,z [a.u.] :    -1.503951     0.242511     0.425702 
x,y,z [Debye]:    -3.822739     0.616413     1.082050 

 

Timings for individual modules:

Sum of individual times         ...      184.875 sec (=   3.081 min)
GTO integral calculation        ...        3.969 sec (=   0.066 min)   2.1 %
SCF iterations                  ...      180.906 sec (=   3.015 min)  97.9 %
                             ****ORCA TERMINATED NORMALLY****
TOTAL RUN TIME: 0 days 0 hours 3 minutes 10 seconds 45 msec
