
                                 *****************
                                 * O   R   C   A *
                                 *****************

                                            #,                                       
                                            ###                                      
                                            ####                                     
                                            #####                                    
                                            ######                                   
                                           ########,                                 
                                     ,,################,,,,,                         
                               ,,#################################,,                 
                          ,,##########################################,,             
                       ,#########################################, ''#####,          
                    ,#############################################,,   '####,        
                  ,##################################################,,,,####,       
                ,###########''''           ''''###############################       
              ,#####''   ,,,,##########,,,,          '''####'''          '####       
            ,##' ,,,,###########################,,,                        '##       
           ' ,,###''''                  '''############,,,                           
         ,,##''                                '''############,,,,        ,,,,,,###''
      ,#''                                            '''#######################'''  
     '                                                          ''''####''''         
             ,#######,   #######,   ,#######,      ##                                
            ,#'     '#,  ##    ##  ,#'     '#,    #''#        ######   ,####,        
            ##       ##  ##   ,#'  ##            #'  '#       #        #'  '#        
            ##       ##  #######   ##           ,######,      #####,   #    #        
            '#,     ,#'  ##    ##  '#,     ,#' ,#      #,         ##   #,  ,#        
             '#######'   ##     ##  '#######'  #'      '#     #####' # '####'        



                  #######################################################
                  #                        -***-                        #
                  #          Department of theory and spectroscopy      #
                  #    Directorship and core code : Frank Neese         #
                  #        Max Planck Institute fuer Kohlenforschung    #
                  #                Kaiser Wilhelm Platz 1               #
                  #                 D-45470 Muelheim/Ruhr               #
                  #                      Germany                        #
                  #                                                     #
                  #                  All rights reserved                #
                  #                        -***-                        #
                  #######################################################


                         Program Version 5.0.3 -  RELEASE  -


 With contributions from (in alphabetic order):
   Daniel Aravena         : Magnetic Suceptibility
   Michael Atanasov       : Ab Initio Ligand Field Theory (pilot matlab implementation)
   Alexander A. Auer      : GIAO ZORA, VPT2 properties, NMR spectrum
   Ute Becker             : Parallelization
   Giovanni Bistoni       : ED, misc. LED, open-shell LED, HFLD
   Martin Brehm           : Molecular dynamics
   Dmytro Bykov           : SCF Hessian
   Vijay G. Chilkuri      : MRCI spin determinant printing, contributions to CSF-ICE
   Dipayan Datta          : RHF DLPNO-CCSD density
   Achintya Kumar Dutta   : EOM-CC, STEOM-CC
   Dmitry Ganyushin       : Spin-Orbit,Spin-Spin,Magnetic field MRCI
   Miquel Garcia          : C-PCM and meta-GGA Hessian, CC/C-PCM, Gaussian charge scheme
   Yang Guo               : DLPNO-NEVPT2, F12-NEVPT2, CIM, IAO-localization
   Andreas Hansen         : Spin unrestricted coupled pair/coupled cluster methods
   Benjamin Helmich-Paris : MC-RPA, TRAH-SCF, COSX integrals
   Lee Huntington         : MR-EOM, pCC
   Robert Izsak           : Overlap fitted RIJCOSX, COSX-SCS-MP3, EOM
   Marcus Kettner         : VPT2
   Christian Kollmar      : KDIIS, OOCD, Brueckner-CCSD(T), CCSD density, CASPT2, CASPT2-K
   Simone Kossmann        : Meta GGA functionals, TD-DFT gradient, OOMP2, MP2 Hessian
   Martin Krupicka        : Initial AUTO-CI
   Lucas Lang             : DCDCAS
   Marvin Lechner         : AUTO-CI (C++ implementation), FIC-MRCC
   Dagmar Lenk            : GEPOL surface, SMD
   Dimitrios Liakos       : Extrapolation schemes; Compound Job, initial MDCI parallelization
   Dimitrios Manganas     : Further ROCIS development; embedding schemes
   Dimitrios Pantazis     : SARC Basis sets
   Anastasios Papadopoulos: AUTO-CI, single reference methods and gradients
   Taras Petrenko         : DFT Hessian,TD-DFT gradient, ASA, ECA, R-Raman, ABS, FL, XAS/XES, NRVS
   Peter Pinski           : DLPNO-MP2, DLPNO-MP2 Gradient
   Christoph Reimann      : Effective Core Potentials
   Marius Retegan         : Local ZFS, SOC
   Christoph Riplinger    : Optimizer, TS searches, QM/MM, DLPNO-CCSD(T), (RO)-DLPNO pert. Triples
   Tobias Risthaus        : Range-separated hybrids, TD-DFT gradient, RPA, STAB
   Michael Roemelt        : Original ROCIS implementation
   Masaaki Saitow         : Open-shell DLPNO-CCSD energy and density
   Barbara Sandhoefer     : DKH picture change effects
   Avijit Sen             : IP-ROCIS
   Kantharuban Sivalingam : CASSCF convergence, NEVPT2, FIC-MRCI
   Bernardo de Souza      : ESD, SOC TD-DFT
   Georgi Stoychev        : AutoAux, RI-MP2 NMR, DLPNO-MP2 response
   Willem Van den Heuvel  : Paramagnetic NMR
   Boris Wezisla          : Elementary symmetry handling
   Frank Wennmohs         : Technical directorship


 We gratefully acknowledge several colleagues who have allowed us to
 interface, adapt or use parts of their codes:
   Stefan Grimme, W. Hujo, H. Kruse, P. Pracht,  : VdW corrections, initial TS optimization,
                  C. Bannwarth, S. Ehlert          DFT functionals, gCP, sTDA/sTD-DF
   Ed Valeev, F. Pavosevic, A. Kumar             : LibInt (2-el integral package), F12 methods
   Garnet Chan, S. Sharma, J. Yang, R. Olivares  : DMRG
   Ulf Ekstrom                                   : XCFun DFT Library
   Mihaly Kallay                                 : mrcc  (arbitrary order and MRCC methods)
   Jiri Pittner, Ondrej Demel                    : Mk-CCSD
   Frank Weinhold                                : gennbo (NPA and NBO analysis)
   Christopher J. Cramer and Donald G. Truhlar   : smd solvation model
   Lars Goerigk                                  : TD-DFT with DH, B97 family of functionals
   V. Asgeirsson, H. Jonsson                     : NEB implementation
   FAccTs GmbH                                   : IRC, NEB, NEB-TS, DLPNO-Multilevel, CI-OPT
                                                   MM, QMMM, 2- and 3-layer-ONIOM, Crystal-QMMM,
                                                   LR-CPCM, SF, NACMEs, symmetry and pop. for TD-DFT,
                                                   nearIR, NL-DFT gradient (VV10), updates on ESD,
                                                   ML-optimized integration grids
   S Lehtola, MJT Oliveira, MAL Marques          : LibXC Library
   Liviu Ungur et al                             : ANISO software


 Your calculation uses the libint2 library for the computation of 2-el integrals
 For citations please refer to: http://libint.valeyev.net

 Your ORCA version has been built with support for libXC version: 5.1.0
 For citations please refer to: https://tddft.org/programs/libxc/

 This ORCA versions uses:
   CBLAS   interface :  Fast vector & matrix operations
   LAPACKE interface :  Fast linear algebra routines
   SCALAPACK package :  Parallel linear algebra routines
   Shared memory     :  Shared parallel matrices
   BLAS/LAPACK       :  OpenBLAS 0.3.15  USE64BITINT DYNAMIC_ARCH NO_AFFINITY Haswell SINGLE_THREADED
        Core in use  :  Haswell
   Copyright (c) 2011-2014, The OpenBLAS Project




***************************************
The coordinates will be read from file: E4.xyz
***************************************


Your calculation utilizes the geometrical counterpoise correction gCP
Please cite in your paper:
H.Kruse, S. Grimme J.Chem.Phys., 136, (2012), 154101 
   

Your calculation utilizes the atom-pairwise dispersion correction
with the Becke-Johnson damping scheme (D3BJ)
Cite in your paper:
S.Grimme, S.Ehrlich, L.Goerigk, J Comput Chem, (2011), 32, 1456–1465 
S.Grimme, J.Antony, S.Ehrlich and H.Krieg, J.Chem.Phys., 132, (2010), 154104 
   

Your calculation employs the composite approach PBEh-3c.
Please cite in your paper:
S. Grimme, J. G. Brandenburg, C. Bannwarth, A. Hansen J.Chem.Phys., 143, (2015), 054107 
   

================================================================================

----- Orbital basis set information -----
Your calculation utilizes the basis: def2-mSVP

----- AuxJ basis set information -----
Your calculation utilizes the auxiliary basis: def2/J
   F. Weigend, Phys. Chem. Chem. Phys. 8, 1057 (2006).

================================================================================
                                        WARNINGS
                       Please study these warnings very carefully!
================================================================================


INFO   : the flag for use of the SHARK integral package has been found!

================================================================================
                                       INPUT FILE
================================================================================
NAME = pbeh-3c.inp
|  1> ! PBEh-3c def2/J TightSCF DefGrid3
|  2> 
|  3> %maxcore 60000
|  4> 
|  5> %pal
|  6> nprocs 4
|  7> end
|  8> 
|  9> *xyzfile 0 1 E4.xyz
| 10> 
| 11>                          ****END OF INPUT****
================================================================================

                       ****************************
                       * Single Point Calculation *
                       ****************************

---------------------------------
CARTESIAN COORDINATES (ANGSTROEM)
---------------------------------
  C     -1.958481   -0.089863    0.000000
  C     -0.538292    0.390586    0.000000
  C      0.538292   -0.390586    0.000000
  C      1.958481    0.089863    0.000000
  H     -2.012161   -1.180547    0.000000
  H     -2.500754    0.276059   -0.878057
  H     -2.500754    0.276059    0.878057
  H     -0.398791    1.470868    0.000000
  H      0.398791   -1.470868    0.000000
  H      2.012161    1.180547    0.000000
  H      2.500754   -0.276059    0.878057
  H      2.500754   -0.276059   -0.878057

----------------------------
CARTESIAN COORDINATES (A.U.)
----------------------------
  NO LB      ZA    FRAG     MASS         X           Y           Z
   0 C     6.0000    0    12.011   -3.700994   -0.169817    0.000000
   1 C     6.0000    0    12.011   -1.017225    0.738101    0.000000
   2 C     6.0000    0    12.011    1.017225   -0.738101    0.000000
   3 C     6.0000    0    12.011    3.700994    0.169817    0.000000
   4 H     1.0000    0     1.008   -3.802434   -2.230911    0.000000
   5 H     1.0000    0     1.008   -4.725740    0.521676   -1.659287
   6 H     1.0000    0     1.008   -4.725740    0.521676    1.659287
   7 H     1.0000    0     1.008   -0.753606    2.779537    0.000000
   8 H     1.0000    0     1.008    0.753606   -2.779537    0.000000
   9 H     1.0000    0     1.008    3.802434    2.230911    0.000000
  10 H     1.0000    0     1.008    4.725740   -0.521676    1.659287
  11 H     1.0000    0     1.008    4.725740   -0.521676   -1.659287

--------------------------------
INTERNAL COORDINATES (ANGSTROEM)
--------------------------------
 C      0   0   0     0.000000000000     0.00000000     0.00000000
 C      1   0   0     1.499256240205     0.00000000     0.00000000
 C      2   1   0     1.330136708729   125.34462388     0.00000000
 C      3   2   1     1.499256240205   125.34462388   180.00000000
 H      1   2   3     1.092004180512   111.50829762     0.00000000
 H      1   2   3     1.094962545411   111.22503245   239.34593024
 H      1   2   3     1.094962545411   111.22503245   120.65406976
 H      2   1   3     1.089251528436   116.04876908   180.00000085
 H      3   2   1     1.089251528436   118.60660704     0.00000000
 H      4   3   2     1.092004180512   111.50829762     0.00000000
 H      4   3   2     1.094962545411   111.22503245   120.65406976
 H      4   3   2     1.094962545411   111.22503245   239.34593024

---------------------------
INTERNAL COORDINATES (A.U.)
---------------------------
 C      0   0   0     0.000000000000     0.00000000     0.00000000
 C      1   0   0     2.833183698561     0.00000000     0.00000000
 C      2   1   0     2.513594100172   125.34462388     0.00000000
 C      3   2   1     2.833183698561   125.34462388   180.00000000
 H      1   2   3     2.063588838265   111.50829762     0.00000000
 H      1   2   3     2.069179337728   111.22503245   239.34593024
 H      1   2   3     2.069179337728   111.22503245   120.65406976
 H      2   1   3     2.058387079699   116.04876908   180.00000085
 H      3   2   1     2.058387079699   118.60660704     0.00000000
 H      4   3   2     2.063588838265   111.50829762     0.00000000
 H      4   3   2     2.069179337728   111.22503245   120.65406976
 H      4   3   2     2.069179337728   111.22503245   239.34593024

---------------------
BASIS SET INFORMATION
---------------------
There are 2 groups of distinct atoms

 Group   1 Type C   : 8s4p1d contracted to 4s2p1d pattern {5111/31/1}
 Group   2 Type H   : 4s contracted to 2s pattern {31}

Atom   0C    basis set group =>   1
Atom   1C    basis set group =>   1
Atom   2C    basis set group =>   1
Atom   3C    basis set group =>   1
Atom   4H    basis set group =>   2
Atom   5H    basis set group =>   2
Atom   6H    basis set group =>   2
Atom   7H    basis set group =>   2
Atom   8H    basis set group =>   2
Atom   9H    basis set group =>   2
Atom  10H    basis set group =>   2
Atom  11H    basis set group =>   2
---------------------------------
AUXILIARY/J BASIS SET INFORMATION
---------------------------------
There are 2 groups of distinct atoms

 Group   1 Type C   : 12s5p4d2f1g contracted to 6s4p3d1f1g pattern {711111/2111/211/2/1}
 Group   2 Type H   : 5s2p1d contracted to 3s1p1d pattern {311/2/1}

Atom   0C    basis set group =>   1
Atom   1C    basis set group =>   1
Atom   2C    basis set group =>   1
Atom   3C    basis set group =>   1
Atom   4H    basis set group =>   2
Atom   5H    basis set group =>   2
Atom   6H    basis set group =>   2
Atom   7H    basis set group =>   2
Atom   8H    basis set group =>   2
Atom   9H    basis set group =>   2
Atom  10H    basis set group =>   2
Atom  11H    basis set group =>   2


           ************************************************************
           *        Program running with 4 parallel MPI-processes     *
           *              working on a common directory               *
           ************************************************************
------------------------------------------------------------------------------
                           ORCA GTO INTEGRAL CALCULATION
                           -- RI-GTO INTEGRALS CHOSEN --
------------------------------------------------------------------------------
------------------------------------------------------------------------------
                   ___                                                        
                  /   \      - P O W E R E D   B Y -                         
                 /     \                                                     
                 |  |  |   _    _      __       _____    __    __             
                 |  |  |  | |  | |    /  \     |  _  \  |  |  /  |          
                  \  \/   | |  | |   /    \    | | | |  |  | /  /          
                 / \  \   | |__| |  /  /\  \   | |_| |  |  |/  /          
                |  |  |   |  __  | /  /__\  \  |    /   |      \           
                |  |  |   | |  | | |   __   |  |    \   |  |\   \          
                \     /   | |  | | |  |  |  |  | |\  \  |  | \   \       
                 \___/    |_|  |_| |__|  |__|  |_| \__\ |__|  \__/        
                                                                              
                      - O R C A' S   B I G   F R I E N D -                    
                                      &                                       
                       - I N T E G R A L  F E E D E R -                       
                                                                              
 v1 FN, 2020, v2 2021                                                         
------------------------------------------------------------------------------


Reading SHARK input file pbeh-3c.SHARKINP.tmp ... ok
----------------------
SHARK INTEGRAL PACKAGE
----------------------

Number of atoms                             ...     12
Number of basis functions                   ...     76
Number of shells                            ...     44
Maximum angular momentum                    ...      2
Integral batch strategy                     ... SHARK/LIBINT Hybrid
RI-J (if used) integral strategy            ... SPLIT-RIJ (Revised 2003 algorithm where possible)
Printlevel                                  ...      1
Contraction scheme used                     ... SEGMENTED contraction
Coulomb Range Separation                    ... NOT USED
Exchange Range Separation                   ... NOT USED
Finite Nucleus Model                        ... NOT USED
Auxiliary Coulomb fitting basis             ... AVAILABLE
   # of basis functions in Aux-J            ...    284
   # of shells in Aux-J                     ...    100
   Maximum angular momentum in Aux-J        ...      4
Auxiliary J/K fitting basis                 ... NOT available
Auxiliary Correlation fitting basis         ... NOT available
Auxiliary 'external' fitting basis          ... NOT available
Integral threshold                          ...     2.500000e-11
Primitive cut-off                           ...     2.500000e-12
Primitive pair pre-selection threshold      ...     2.500000e-12

Calculating pre-screening integrals         ... done (  0.1 sec) Dimension = 44
Organizing shell pair data                  ... done (  0.1 sec)
Shell pair information
Total number of shell pairs                 ...       990
Shell pairs after pre-screening             ...       949
Total number of primitive shell pairs       ...      3646
Primitive shell pairs kept                  ...      2666
          la=0 lb=0:    493 shell pairs
          la=1 lb=0:    254 shell pairs
          la=1 lb=1:     36 shell pairs
          la=2 lb=0:    124 shell pairs
          la=2 lb=1:     32 shell pairs
          la=2 lb=2:     10 shell pairs

Calculating one electron integrals          ... done (  0.0 sec)
Calculating RI/J V-Matrix + Cholesky decomp.... done (  0.1 sec)
Calculating Nuclear repulsion               ... done (  0.0 sec) ENN=    115.857509316632 Eh

SHARK setup successfully completed in   1.0 seconds

Maximum memory used throughout the entire GTOINT-calculation: 9.7 MB


           ************************************************************
           *        Program running with 4 parallel MPI-processes     *
           *              working on a common directory               *
           ************************************************************
-------------------------------------------------------------------------------
                                 ORCA SCF
-------------------------------------------------------------------------------

------------
SCF SETTINGS
------------
Hamiltonian:
 Density Functional     Method          .... DFT(GTOs)
 Exchange Functional    Exchange        .... PBE
   PBE kappa parameter   XKappa         ....  1.024500
   PBE mue parameter    XMuePBE         ....  0.123457
 Correlation Functional Correlation     .... PBE
   PBE beta parameter  CBetaPBE         ....  0.030000
 LDA part of GGA corr.  LDAOpt          .... PW91-LDA
 Gradients option       PostSCFGGA      .... off
 Hybrid DFT is turned on
   Fraction HF Exchange ScalHFX         ....  0.420000
   Scaling of DF-GGA-X  ScalDFX         ....  0.580000
   Scaling of DF-GGA-C  ScalDFC         ....  1.000000
   Scaling of DF-LDA-C  ScalLDAC        ....  1.000000
   Perturbative correction              ....  0.000000
   Density functional embedding theory  .... OFF
 RI-approximation to the Coulomb term is turned on
   Number of AuxJ basis functions       .... 284
   RIJ-ON(X) (HFX calculated with O(N)) .... on
   Number of AuxJ basis functions       .... 284
   RIJ-COSX (HFX calculated with COS-X)).... on


General Settings:
 Integral files         IntName         .... pbeh-3c
 Hartree-Fock type      HFTyp           .... RHF
 Total Charge           Charge          ....    0
 Multiplicity           Mult            ....    1
 Number of Electrons    NEL             ....   32
 Basis Dimension        Dim             ....   76
 Nuclear Repulsion      ENuc            ....    115.8575093166 Eh

Convergence Acceleration:
 DIIS                   CNVDIIS         .... on
   Start iteration      DIISMaxIt       ....    12
   Startup error        DIISStart       ....  0.200000
   # of expansion vecs  DIISMaxEq       ....     5
   Bias factor          DIISBfac        ....   1.050
   Max. coefficient     DIISMaxC        ....  10.000
 Trust-Rad. Augm. Hess. CNVTRAH         .... auto
   Auto Start mean grad. ratio tolernc. ....  1.125000
   Auto Start start iteration           ....    20
   Auto Start num. interpolation iter.  ....    10
   Max. Number of Micro iterations      ....    16
   Max. Number of Macro iterations      .... Maxiter - #DIIS iter
   Number of Davidson start vectors     ....     2
   Converg. threshold I  (grad. norm)   ....   1.000e-05
   Converg. threshold II (energy diff.) ....   1.000e-08
   Grad. Scal. Fac. for Micro threshold ....   0.100
   Minimum threshold for Micro iter.    ....   0.010
   NR start threshold (gradient norm)   ....   0.001
   Initial trust radius                 ....   0.400
   Minimum AH scaling param. (alpha)    ....   1.000
   Maximum AH scaling param. (alpha)    .... 1000.000
   Orbital update algorithm             .... Taylor
   White noise on init. David. guess    .... on
   Maximum white noise                  ....   0.010
   Quad. conv. algorithm                .... NR
   COSX micro iterations for RIJONX calc.... off
 SOSCF                  CNVSOSCF        .... on
   Start iteration      SOSCFMaxIt      ....   150
   Startup grad/error   SOSCFStart      ....  0.003300
 Level Shifting         CNVShift        .... on
   Level shift para.    LevelShift      ....    0.2500
   Turn off err/grad.   ShiftErr        ....    0.0010
 Zerner damping         CNVZerner       .... off
 Static damping         CNVDamp         .... on
   Fraction old density DampFac         ....    0.7000
   Max. Damping (<1)    DampMax         ....    0.9800
   Min. Damping (>=0)   DampMin         ....    0.0000
   Turn off err/grad.   DampErr         ....    0.1000
 Fernandez-Rico         CNVRico         .... off

SCF Procedure:
 Maximum # iterations   MaxIter         ....   125
 SCF integral mode      SCFMode         .... Direct
   Integral package                     .... SHARK and LIBINT hybrid scheme
 Reset frequency        DirectResetFreq ....    20
 Integral Threshold     Thresh          ....  2.500e-11 Eh
 Primitive CutOff       TCut            ....  2.500e-12 Eh

Convergence Tolerance:
 Convergence Check Mode ConvCheckMode   .... Total+1el-Energy
 Convergence forced     ConvForced      .... 0
 Energy Change          TolE            ....  1.000e-08 Eh
 1-El. energy change                    ....  1.000e-05 Eh
 Orbital Gradient       TolG            ....  1.000e-05
 Orbital Rotation angle TolX            ....  1.000e-05
 DIIS Error             TolErr          ....  5.000e-07


Diagonalization of the overlap matrix:
Smallest eigenvalue                        ... 4.035e-03
Time for diagonalization                   ...    0.002 sec
Threshold for overlap eigenvalues          ... 1.000e-08
Number of eigenvalues below threshold      ... 0
Time for construction of square roots      ...    0.098 sec
Total time needed                          ...    0.100 sec

--------------------------------
INITIAL GUESS: MINIMAL BASIS EHT
--------------------------------
The minimal basis has 28 functions
EHT matrix was diagonalized
Basis set overlap was calculated now projecting the orbitals
Using GuessMode=FMatrix for the initial guess
C*T matrix was formed
Effective Fockian was calculated
Effective Fockian was diagonalized
Initial density was built
                      ------------------
                      INITIAL GUESS DONE
                      ------------------
-------------------
DFT GRID GENERATION
-------------------

General Integration Accuracy     IntAcc      ... 4.959
Radial Grid Type                 RadialGrid  ... OptM3 with GC (2021)
Angular Grid (max. ang.)         AngularGrid ... 6 (Lebedev-590)
Angular grid pruning method      GridPruning ... 4 (adaptive)
Weight generation scheme         WeightScheme... Becke
Basis function cutoff            BFCut       ... 1.0000e-11
Integration weight cutoff        WCut        ... 1.0000e-14
Angular grids for H and He will be reduced by one unit
Partially contracted basis set               ... off
Rotationally invariant grid construction     ... off

Total number of grid points                  ...   128002
Total number of batches                      ...     2007
Average number of points per batch           ...       63
Average number of grid points per atom       ...    10667
Time for grid setup =    2.842 sec

--------------------
COSX GRID GENERATION
--------------------

GRIDX 1
-------
General Integration Accuracy     IntAcc      ... 4.020
Radial Grid Type                 RadialGrid  ... OptM3 with GC (2021)
Angular Grid (max. ang.)         AngularGrid ... 2 (Lebedev-110)
Angular grid pruning method      GridPruning ... 4 (adaptive)
Weight generation scheme         WeightScheme... Becke
Basis function cutoff            BFCut       ... 1.0000e-11
Integration weight cutoff        WCut        ... 1.0000e-14
Angular grids for H and He will be reduced by one unit
Partially contracted basis set               ... on
Rotationally invariant grid construction     ... off

Total number of grid points                  ...    13524
Total number of batches                      ...      218
Average number of points per batch           ...       62
Average number of grid points per atom       ...     1127
UseSFitting                                  ... on

GRIDX 2
-------
General Integration Accuracy     IntAcc      ... 4.338
Radial Grid Type                 RadialGrid  ... OptM3 with GC (2021)
Angular Grid (max. ang.)         AngularGrid ... 3 (Lebedev-194)
Angular grid pruning method      GridPruning ... 4 (adaptive)
Weight generation scheme         WeightScheme... Becke
Basis function cutoff            BFCut       ... 1.0000e-11
Integration weight cutoff        WCut        ... 1.0000e-14
Angular grids for H and He will be reduced by one unit
Partially contracted basis set               ... on
Rotationally invariant grid construction     ... off

Total number of grid points                  ...    29608
Total number of batches                      ...      468
Average number of points per batch           ...       63
Average number of grid points per atom       ...     2467
UseSFitting                                  ... on

GRIDX 3
-------
General Integration Accuracy     IntAcc      ... 4.871
Radial Grid Type                 RadialGrid  ... OptM3 with GC (2021)
Angular Grid (max. ang.)         AngularGrid ... 4 (Lebedev-302)
Angular grid pruning method      GridPruning ... 4 (adaptive)
Weight generation scheme         WeightScheme... Becke
Basis function cutoff            BFCut       ... 1.0000e-11
Integration weight cutoff        WCut        ... 1.0000e-14
Angular grids for H and He will be reduced by one unit
Partially contracted basis set               ... on
Rotationally invariant grid construction     ... off

Total number of grid points                  ...    59304
Total number of batches                      ...      932
Average number of points per batch           ...       63
Average number of grid points per atom       ...     4942
UseSFitting                                  ... on

Time for X-Grid setup             =    2.967 sec

--------------
SCF ITERATIONS
--------------
ITER       Energy         Delta-E        Max-DP      RMS-DP      [F,P]     Damp
               ***  Starting incremental Fock matrix formation  ***
  0   -156.5331865492   0.000000000000 0.06254938  0.00357259  0.4050620 0.7000
  1   -156.6338122300  -0.100625680858 0.04505973  0.00268081  0.2874247 0.7000
  2   -156.7060943997  -0.072282169637 0.03291098  0.00198542  0.2029874 0.7000
                               ***Turning on DIIS***
  3   -156.7575805512  -0.051486151572 0.02430336  0.00146663  0.1431965 0.7000
  4   -156.7941318466  -0.036551295340 0.01924513  0.00114954  0.1008945 0.7000
  5   -156.8200175625  -0.025885715938 0.04912460  0.00287981  0.0706949 0.0000
                      *** Initiating the SOSCF procedure ***
                           *** Shutting down DIIS ***
                      *** Re-Reading the Fockian *** 
                      *** Removing any level shift *** 
ITER      Energy       Delta-E        Grad      Rot      Max-DP    RMS-DP
  6   -156.88159881  -0.0615812495  0.001843  0.001843  0.002455  0.000116
               *** Restarting incremental Fock matrix formation ***
  7   -156.88161958  -0.0000207638  0.000639  0.000795  0.001102  0.000057
  8   -156.88162292  -0.0000033478  0.000145  0.000271  0.000338  0.000018
  9   -156.88162305  -0.0000001268  0.000064  0.000059  0.000098  0.000005
 10   -156.88162312  -0.0000000696  0.000003  0.000003  0.000008  0.000000
                  ***Gradient check signals convergence***
              ***Rediagonalizing the Fockian in SOSCF/NRSCF***

               *****************************************************
               *                     SUCCESS                       *
               *           SCF CONVERGED AFTER  11 CYCLES          *
               *****************************************************

Old exchange energy                            =     -9.883969790 Eh
New exchange energy                            =     -9.883972278 Eh
Exchange energy change after final integration =     -0.000002487 Eh
Total energy after final integration           =   -156.881625608 Eh
Final COS-X integration done in                =     1.517 sec

----------------
TOTAL SCF ENERGY
----------------

Total Energy       :         -156.88162561 Eh           -4268.96606 eV

Components:
Nuclear Repulsion  :          115.85750932 Eh            3152.64311 eV
Electronic Energy  :         -272.73913492 Eh           -7421.60917 eV
One Electron Energy:         -438.89057518 Eh          -11942.81971 eV
Two Electron Energy:          166.15144026 Eh            4521.21054 eV
Max COSX asymmetry :            0.00000172 Eh               0.00005 eV

Virial components:
Potential Energy   :         -312.41024769 Eh           -8501.11503 eV
Kinetic Energy     :          155.52862208 Eh            4232.14897 eV
Virial Ratio       :            2.00869939


DFT components:
N(Alpha)           :       16.000000686585 electrons
N(Beta)            :       16.000000686585 electrons
N(Total)           :       32.000001373171 electrons
E(X)               :      -13.098000145796 Eh       
E(C)               :       -1.339134653888 Eh       
E(XC)              :      -14.437134799684 Eh       
DFET-embed. en.    :        0.000000000000 Eh       

---------------
SCF CONVERGENCE
---------------

  Last Energy change         ...   -4.7871e-10  Tolerance :   1.0000e-08
  Last MAX-Density change    ...    1.5543e-15  Tolerance :   1.0000e-07
  Last RMS-Density change    ...    4.6714e-17  Tolerance :   5.0000e-09
  Last Orbital Gradient      ...    1.7398e-06  Tolerance :   1.0000e-05
  Last Orbital Rotation      ...    1.4624e-06  Tolerance :   1.0000e-05

             **** THE GBW FILE WAS UPDATED (pbeh-3c.gbw) ****
             **** DENSITY pbeh-3c.scfp WAS UPDATED ****
             **** ENERGY FILE WAS UPDATED (pbeh-3c.en.tmp) ****
             **** THE GBW FILE WAS UPDATED (pbeh-3c.gbw) ****
             **** DENSITY pbeh-3c.scfp WAS UPDATED ****
----------------
ORBITAL ENERGIES
----------------

  NO   OCC          E(Eh)            E(eV) 
   0   2.0000     -10.436893      -284.0023 
   1   2.0000     -10.435924      -283.9759 
   2   2.0000     -10.428305      -283.7686 
   3   2.0000     -10.428289      -283.7682 
   4   2.0000      -0.886933       -24.1347 
   5   2.0000      -0.810665       -22.0593 
   6   2.0000      -0.719555       -19.5801 
   7   2.0000      -0.612229       -16.6596 
   8   2.0000      -0.500870       -13.6294 
   9   2.0000      -0.498319       -13.5599 
  10   2.0000      -0.469897       -12.7866 
  11   2.0000      -0.454472       -12.3668 
  12   2.0000      -0.424859       -11.5610 
  13   2.0000      -0.412124       -11.2145 
  14   2.0000      -0.387982       -10.5575 
  15   2.0000      -0.282109        -7.6766 
  16   0.0000       0.060376         1.6429 
  17   0.0000       0.168951         4.5974 
  18   0.0000       0.172727         4.7001 
  19   0.0000       0.180607         4.9146 
  20   0.0000       0.207093         5.6353 
  21   0.0000       0.221857         6.0370 
  22   0.0000       0.222122         6.0443 
  23   0.0000       0.228514         6.2182 
  24   0.0000       0.237678         6.4676 
  25   0.0000       0.260298         7.0831 
  26   0.0000       0.325938         8.8692 
  27   0.0000       0.442205        12.0330 
  28   0.0000       0.491989        13.3877 
  29   0.0000       0.521044        14.1783 
  30   0.0000       0.524046        14.2600 
  31   0.0000       0.524408        14.2699 
  32   0.0000       0.591590        16.0980 
  33   0.0000       0.616869        16.7859 
  34   0.0000       0.654948        17.8220 
  35   0.0000       0.669631        18.2216 
  36   0.0000       0.676871        18.4186 
  37   0.0000       0.689883        18.7727 
  38   0.0000       0.800735        21.7891 
  39   0.0000       0.836879        22.7726 
  40   0.0000       0.978690        26.6315 
  41   0.0000       0.984107        26.7789 
  42   0.0000       0.996291        27.1105 
  43   0.0000       1.027699        27.9651 
  44   0.0000       1.040402        28.3108 
  45   0.0000       1.056968        28.7616 
  46   0.0000       1.075212        29.2580 
  47   0.0000       1.081736        29.4355 
  48   0.0000       1.173588        31.9350 
  49   0.0000       1.220686        33.2166 
  50   0.0000       1.264158        34.3995 
  51   0.0000       1.396454        37.9995 
  52   0.0000       1.436773        39.0966 
  53   0.0000       1.519924        41.3592 
  54   0.0000       1.718630        46.7663 
  55   0.0000       1.799897        48.9777 
  56   0.0000       1.850044        50.3423 
  57   0.0000       1.911368        52.0110 
  58   0.0000       1.965968        53.4967 
  59   0.0000       2.005232        54.5651 
  60   0.0000       2.109980        57.4155 
  61   0.0000       2.144593        58.3573 
  62   0.0000       2.289657        62.3047 
  63   0.0000       2.341965        63.7281 
  64   0.0000       2.358243        64.1710 
  65   0.0000       2.376901        64.6788 
  66   0.0000       2.451708        66.7144 
  67   0.0000       2.477895        67.4270 
  68   0.0000       2.547468        69.3201 
  69   0.0000       2.688043        73.1454 
  70   0.0000       2.893894        78.7468 
  71   0.0000       3.019059        82.1528 
  72   0.0000      13.406084       364.7981 
  73   0.0000      13.781993       375.0271 
  74   0.0000      13.893011       378.0481 
  75   0.0000      14.210287       386.6816 

                    ********************************
                    * MULLIKEN POPULATION ANALYSIS *
                    ********************************

-----------------------
MULLIKEN ATOMIC CHARGES
-----------------------
   0 C :   -0.682461
   1 C :   -0.183397
   2 C :   -0.183398
   3 C :   -0.682461
   4 H :    0.220292
   5 H :    0.222270
   6 H :    0.222270
   7 H :    0.201026
   8 H :    0.201026
   9 H :    0.220292
  10 H :    0.222270
  11 H :    0.222270
Sum of atomic charges:    0.0000000

--------------------------------
MULLIKEN REDUCED ORBITAL CHARGES
--------------------------------
  0 C s       :     3.393240  s :     3.393240
      pz      :     1.127749  p :     3.251979
      px      :     0.996099
      py      :     1.128131
      dz2     :     0.006907  d :     0.037242
      dxz     :     0.011327
      dyz     :     0.003577
      dx2y2   :     0.010405
      dxy     :     0.005027
  1 C s       :     3.227330  s :     3.227330
      pz      :     0.997209  p :     2.915922
      px      :     0.895154
      py      :     1.023559
      dz2     :     0.003634  d :     0.040146
      dxz     :     0.007672
      dyz     :     0.002017
      dx2y2   :     0.016659
      dxy     :     0.010163
  2 C s       :     3.227330  s :     3.227330
      pz      :     0.997209  p :     2.915922
      px      :     0.895154
      py      :     1.023559
      dz2     :     0.003634  d :     0.040146
      dxz     :     0.007672
      dyz     :     0.002017
      dx2y2   :     0.016659
      dxy     :     0.010163
  3 C s       :     3.393240  s :     3.393240
      pz      :     1.127749  p :     3.251979
      px      :     0.996099
      py      :     1.128131
      dz2     :     0.006907  d :     0.037242
      dxz     :     0.011327
      dyz     :     0.003577
      dx2y2   :     0.010405
      dxy     :     0.005027
  4 H s       :     0.779708  s :     0.779708
  5 H s       :     0.777730  s :     0.777730
  6 H s       :     0.777730  s :     0.777730
  7 H s       :     0.798974  s :     0.798974
  8 H s       :     0.798974  s :     0.798974
  9 H s       :     0.779708  s :     0.779708
 10 H s       :     0.777730  s :     0.777730
 11 H s       :     0.777730  s :     0.777730


                     *******************************
                     * LOEWDIN POPULATION ANALYSIS *
                     *******************************

----------------------
LOEWDIN ATOMIC CHARGES
----------------------
   0 C :   -0.358155
   1 C :   -0.161617
   2 C :   -0.161617
   3 C :   -0.358155
   4 H :    0.130741
   5 H :    0.132794
   6 H :    0.132794
   7 H :    0.123444
   8 H :    0.123444
   9 H :    0.130741
  10 H :    0.132794
  11 H :    0.132794

-------------------------------
LOEWDIN REDUCED ORBITAL CHARGES
-------------------------------
  0 C s       :     2.946990  s :     2.946990
      pz      :     1.130058  p :     3.341263
      px      :     1.081238
      py      :     1.129968
      dz2     :     0.012039  d :     0.069902
      dxz     :     0.021067
      dyz     :     0.005383
      dx2y2   :     0.020456
      dxy     :     0.010958
  1 C s       :     2.909755  s :     2.909755
      pz      :     0.993937  p :     3.162886
      px      :     1.073947
      py      :     1.095002
      dz2     :     0.005983  d :     0.088976
      dxz     :     0.015201
      dyz     :     0.003407
      dx2y2   :     0.038355
      dxy     :     0.026030
  2 C s       :     2.909755  s :     2.909755
      pz      :     0.993937  p :     3.162886
      px      :     1.073947
      py      :     1.095002
      dz2     :     0.005983  d :     0.088976
      dxz     :     0.015201
      dyz     :     0.003407
      dx2y2   :     0.038355
      dxy     :     0.026030
  3 C s       :     2.946990  s :     2.946990
      pz      :     1.130058  p :     3.341263
      px      :     1.081238
      py      :     1.129968
      dz2     :     0.012039  d :     0.069902
      dxz     :     0.021067
      dyz     :     0.005383
      dx2y2   :     0.020456
      dxy     :     0.010958
  4 H s       :     0.869259  s :     0.869259
  5 H s       :     0.867206  s :     0.867206
  6 H s       :     0.867206  s :     0.867206
  7 H s       :     0.876556  s :     0.876556
  8 H s       :     0.876556  s :     0.876556
  9 H s       :     0.869259  s :     0.869259
 10 H s       :     0.867206  s :     0.867206
 11 H s       :     0.867206  s :     0.867206


                      *****************************
                      * MAYER POPULATION ANALYSIS *
                      *****************************

  NA   - Mulliken gross atomic population
  ZA   - Total nuclear charge
  QA   - Mulliken gross atomic charge
  VA   - Mayer's total valence
  BVA  - Mayer's bonded valence
  FA   - Mayer's free valence

  ATOM       NA         ZA         QA         VA         BVA        FA
  0 C      6.6825     6.0000    -0.6825     3.7519     3.7519    -0.0000
  1 C      6.1834     6.0000    -0.1834     3.7968     3.7968     0.0000
  2 C      6.1834     6.0000    -0.1834     3.7968     3.7968     0.0000
  3 C      6.6825     6.0000    -0.6825     3.7519     3.7519    -0.0000
  4 H      0.7797     1.0000     0.2203     0.9158     0.9158     0.0000
  5 H      0.7777     1.0000     0.2223     0.9056     0.9056    -0.0000
  6 H      0.7777     1.0000     0.2223     0.9056     0.9056    -0.0000
  7 H      0.7990     1.0000     0.2010     0.9213     0.9213     0.0000
  8 H      0.7990     1.0000     0.2010     0.9213     0.9213     0.0000
  9 H      0.7797     1.0000     0.2203     0.9158     0.9158     0.0000
 10 H      0.7777     1.0000     0.2223     0.9056     0.9056     0.0000
 11 H      0.7777     1.0000     0.2223     0.9056     0.9056    -0.0000

  Mayer bond orders larger than 0.100000
B(  0-C ,  1-C ) :   0.9979 B(  0-C ,  4-H ) :   0.9314 B(  0-C ,  5-H ) :   0.9178 
B(  0-C ,  6-H ) :   0.9178 B(  1-C ,  2-C ) :   1.9105 B(  1-C ,  7-H ) :   0.9217 
B(  2-C ,  3-C ) :   0.9979 B(  2-C ,  8-H ) :   0.9217 B(  3-C ,  9-H ) :   0.9314 
B(  3-C , 10-H ) :   0.9178 B(  3-C , 11-H ) :   0.9178 

-------
TIMINGS
-------

Total SCF time: 0 days 0 hours 0 min 54 sec 

Total time                  ....      54.059 sec
Sum of individual times     ....      49.261 sec  ( 91.1%)

Fock matrix formation       ....      39.574 sec  ( 73.2%)
  Split-RI-J                ....       5.760 sec  ( 14.6% of F)
  Chain of spheres X        ....      11.355 sec  ( 28.7% of F)
  XC integration            ....      10.565 sec  ( 26.7% of F)
    Basis function eval.    ....       1.731 sec  ( 16.4% of XC)
    Density eval.           ....       0.849 sec  (  8.0% of XC)
    XC-Functional eval.     ....       0.862 sec  (  8.2% of XC)
    XC-Potential eval.      ....       0.483 sec  (  4.6% of XC)
Diagonalization             ....       0.593 sec  (  1.1%)
Density matrix formation    ....       0.232 sec  (  0.4%)
Population analysis         ....       0.095 sec  (  0.2%)
Initial guess               ....       0.008 sec  (  0.0%)
Orbital Transformation      ....       0.000 sec  (  0.0%)
Orbital Orthonormalization  ....       0.000 sec  (  0.0%)
DIIS solution               ....       2.412 sec  (  4.5%)
SOSCF solution              ....       0.539 sec  (  1.0%)
Grid generation             ....       5.809 sec  ( 10.7%)

Maximum memory used throughout the entire SCF-calculation: 48.9 MB


-------------------------------------------------------------------------------
                          DFT DISPERSION CORRECTION                            
                                                                               
                              DFTD3 V3.1  Rev 1                                
                          USING Becke-Johnson damping                          
-------------------------------------------------------------------------------
The PBEh-3c composite method is recognized
Using three-body term ABC
Active option DFTDOPT                   ...         4   

molecular C6(AA) [au] = 1068.618604 


            DFT-D V3
 parameters
 s6 scaling factor         :     1.0000 
 a1 scaling factor         :     0.4860 
 s8 scaling factor         :     0.0000 
 a2 scaling factor         :     4.5000 
 Damping factor alpha9(ATM):    16.0000 
 ad hoc parameters k1-k3   :    16.0000     1.3333    -4.0000 

 Edisp/kcal,au: -2.604708407817  -0.004150866621 
 E6   /kcal   :  -2.606864049 
 E8   /kcal   :  -0.000000000 
 E6(ABC)      :   0.002155641 
 % E8         :   0.000000000 
 % E6(ABC)    :  -0.082759390 

-------------------------   ----------------
Dispersion correction           -0.004150867
-------------------------   ----------------

------------------   -----------------
gCP correction             0.012966708
------------------   -----------------

-------------------------   --------------------
FINAL SINGLE POINT ENERGY      -156.872809766227
-------------------------   --------------------


                            ***************************************
                            *     ORCA property calculations      *
                            ***************************************

                                    ---------------------
                                    Active property flags
                                    ---------------------
   (+) Dipole Moment


------------------------------------------------------------------------------
                       ORCA ELECTRIC PROPERTIES CALCULATION
------------------------------------------------------------------------------

Dipole Moment Calculation                       ... on
Quadrupole Moment Calculation                   ... off
Polarizability Calculation                      ... off
GBWName                                         ... pbeh-3c.gbw
Electron density                                ... pbeh-3c.scfp
The origin for moment calculation is the CENTER OF MASS  = ( 0.000000, -0.000000  0.000000)

-------------
DIPOLE MOMENT
-------------
                                X             Y             Z
Electronic contribution:      0.00000      -0.00000       0.00000
Nuclear contribution   :      0.00000       0.00000       0.00000
                        -----------------------------------------
Total Dipole Moment    :      0.00000      -0.00000       0.00000
                        -----------------------------------------
Magnitude (a.u.)       :      0.00000
Magnitude (Debye)      :      0.00000



--------------------
Rotational spectrum 
--------------------
 
Rotational constants in cm-1:     1.166958     0.124038     0.116957 
Rotational constants in MHz : 34984.512378  3718.558884  3506.269758 

 Dipole components along the rotational axes: 
x,y,z [a.u.] :    -0.000000    -0.000000     0.000000 
x,y,z [Debye]:    -0.000000    -0.000000     0.000000 

 

Timings for individual modules:

Sum of individual times         ...       56.656 sec (=   0.944 min)
GTO integral calculation        ...        1.640 sec (=   0.027 min)   2.9 %
SCF iterations                  ...       55.017 sec (=   0.917 min)  97.1 %
                             ****ORCA TERMINATED NORMALLY****
TOTAL RUN TIME: 0 days 0 hours 0 minutes 58 seconds 746 msec
