
                                 *****************
                                 * O   R   C   A *
                                 *****************

                                            #,                                       
                                            ###                                      
                                            ####                                     
                                            #####                                    
                                            ######                                   
                                           ########,                                 
                                     ,,################,,,,,                         
                               ,,#################################,,                 
                          ,,##########################################,,             
                       ,#########################################, ''#####,          
                    ,#############################################,,   '####,        
                  ,##################################################,,,,####,       
                ,###########''''           ''''###############################       
              ,#####''   ,,,,##########,,,,          '''####'''          '####       
            ,##' ,,,,###########################,,,                        '##       
           ' ,,###''''                  '''############,,,                           
         ,,##''                                '''############,,,,        ,,,,,,###''
      ,#''                                            '''#######################'''  
     '                                                          ''''####''''         
             ,#######,   #######,   ,#######,      ##                                
            ,#'     '#,  ##    ##  ,#'     '#,    #''#        ######   ,####,        
            ##       ##  ##   ,#'  ##            #'  '#       #        #'  '#        
            ##       ##  #######   ##           ,######,      #####,   #    #        
            '#,     ,#'  ##    ##  '#,     ,#' ,#      #,         ##   #,  ,#        
             '#######'   ##     ##  '#######'  #'      '#     #####' # '####'        



                  #######################################################
                  #                        -***-                        #
                  #          Department of theory and spectroscopy      #
                  #    Directorship and core code : Frank Neese         #
                  #        Max Planck Institute fuer Kohlenforschung    #
                  #                Kaiser Wilhelm Platz 1               #
                  #                 D-45470 Muelheim/Ruhr               #
                  #                      Germany                        #
                  #                                                     #
                  #                  All rights reserved                #
                  #                        -***-                        #
                  #######################################################


                         Program Version 5.0.3 -  RELEASE  -


 With contributions from (in alphabetic order):
   Daniel Aravena         : Magnetic Suceptibility
   Michael Atanasov       : Ab Initio Ligand Field Theory (pilot matlab implementation)
   Alexander A. Auer      : GIAO ZORA, VPT2 properties, NMR spectrum
   Ute Becker             : Parallelization
   Giovanni Bistoni       : ED, misc. LED, open-shell LED, HFLD
   Martin Brehm           : Molecular dynamics
   Dmytro Bykov           : SCF Hessian
   Vijay G. Chilkuri      : MRCI spin determinant printing, contributions to CSF-ICE
   Dipayan Datta          : RHF DLPNO-CCSD density
   Achintya Kumar Dutta   : EOM-CC, STEOM-CC
   Dmitry Ganyushin       : Spin-Orbit,Spin-Spin,Magnetic field MRCI
   Miquel Garcia          : C-PCM and meta-GGA Hessian, CC/C-PCM, Gaussian charge scheme
   Yang Guo               : DLPNO-NEVPT2, F12-NEVPT2, CIM, IAO-localization
   Andreas Hansen         : Spin unrestricted coupled pair/coupled cluster methods
   Benjamin Helmich-Paris : MC-RPA, TRAH-SCF, COSX integrals
   Lee Huntington         : MR-EOM, pCC
   Robert Izsak           : Overlap fitted RIJCOSX, COSX-SCS-MP3, EOM
   Marcus Kettner         : VPT2
   Christian Kollmar      : KDIIS, OOCD, Brueckner-CCSD(T), CCSD density, CASPT2, CASPT2-K
   Simone Kossmann        : Meta GGA functionals, TD-DFT gradient, OOMP2, MP2 Hessian
   Martin Krupicka        : Initial AUTO-CI
   Lucas Lang             : DCDCAS
   Marvin Lechner         : AUTO-CI (C++ implementation), FIC-MRCC
   Dagmar Lenk            : GEPOL surface, SMD
   Dimitrios Liakos       : Extrapolation schemes; Compound Job, initial MDCI parallelization
   Dimitrios Manganas     : Further ROCIS development; embedding schemes
   Dimitrios Pantazis     : SARC Basis sets
   Anastasios Papadopoulos: AUTO-CI, single reference methods and gradients
   Taras Petrenko         : DFT Hessian,TD-DFT gradient, ASA, ECA, R-Raman, ABS, FL, XAS/XES, NRVS
   Peter Pinski           : DLPNO-MP2, DLPNO-MP2 Gradient
   Christoph Reimann      : Effective Core Potentials
   Marius Retegan         : Local ZFS, SOC
   Christoph Riplinger    : Optimizer, TS searches, QM/MM, DLPNO-CCSD(T), (RO)-DLPNO pert. Triples
   Tobias Risthaus        : Range-separated hybrids, TD-DFT gradient, RPA, STAB
   Michael Roemelt        : Original ROCIS implementation
   Masaaki Saitow         : Open-shell DLPNO-CCSD energy and density
   Barbara Sandhoefer     : DKH picture change effects
   Avijit Sen             : IP-ROCIS
   Kantharuban Sivalingam : CASSCF convergence, NEVPT2, FIC-MRCI
   Bernardo de Souza      : ESD, SOC TD-DFT
   Georgi Stoychev        : AutoAux, RI-MP2 NMR, DLPNO-MP2 response
   Willem Van den Heuvel  : Paramagnetic NMR
   Boris Wezisla          : Elementary symmetry handling
   Frank Wennmohs         : Technical directorship


 We gratefully acknowledge several colleagues who have allowed us to
 interface, adapt or use parts of their codes:
   Stefan Grimme, W. Hujo, H. Kruse, P. Pracht,  : VdW corrections, initial TS optimization,
                  C. Bannwarth, S. Ehlert          DFT functionals, gCP, sTDA/sTD-DF
   Ed Valeev, F. Pavosevic, A. Kumar             : LibInt (2-el integral package), F12 methods
   Garnet Chan, S. Sharma, J. Yang, R. Olivares  : DMRG
   Ulf Ekstrom                                   : XCFun DFT Library
   Mihaly Kallay                                 : mrcc  (arbitrary order and MRCC methods)
   Jiri Pittner, Ondrej Demel                    : Mk-CCSD
   Frank Weinhold                                : gennbo (NPA and NBO analysis)
   Christopher J. Cramer and Donald G. Truhlar   : smd solvation model
   Lars Goerigk                                  : TD-DFT with DH, B97 family of functionals
   V. Asgeirsson, H. Jonsson                     : NEB implementation
   FAccTs GmbH                                   : IRC, NEB, NEB-TS, DLPNO-Multilevel, CI-OPT
                                                   MM, QMMM, 2- and 3-layer-ONIOM, Crystal-QMMM,
                                                   LR-CPCM, SF, NACMEs, symmetry and pop. for TD-DFT,
                                                   nearIR, NL-DFT gradient (VV10), updates on ESD,
                                                   ML-optimized integration grids
   S Lehtola, MJT Oliveira, MAL Marques          : LibXC Library
   Liviu Ungur et al                             : ANISO software


 Your calculation uses the libint2 library for the computation of 2-el integrals
 For citations please refer to: http://libint.valeyev.net

 Your ORCA version has been built with support for libXC version: 5.1.0
 For citations please refer to: https://tddft.org/programs/libxc/

 This ORCA versions uses:
   CBLAS   interface :  Fast vector & matrix operations
   LAPACKE interface :  Fast linear algebra routines
   SCALAPACK package :  Parallel linear algebra routines
   Shared memory     :  Shared parallel matrices
   BLAS/LAPACK       :  OpenBLAS 0.3.15  USE64BITINT DYNAMIC_ARCH NO_AFFINITY Haswell SINGLE_THREADED
        Core in use  :  Haswell
   Copyright (c) 2011-2014, The OpenBLAS Project




***************************************
The coordinates will be read from file: 22.xyz
***************************************


Your calculation utilizes the geometrical counterpoise correction gCP
Please cite in your paper:
H.Kruse, S. Grimme J.Chem.Phys., 136, (2012), 154101 
   

Your calculation utilizes the atom-pairwise dispersion correction
with the Becke-Johnson damping scheme (D3BJ)
Cite in your paper:
S.Grimme, S.Ehrlich, L.Goerigk, J Comput Chem, (2011), 32, 1456–1465 
S.Grimme, J.Antony, S.Ehrlich and H.Krieg, J.Chem.Phys., 132, (2010), 154104 
   

Your calculation employs the composite approach PBEh-3c.
Please cite in your paper:
S. Grimme, J. G. Brandenburg, C. Bannwarth, A. Hansen J.Chem.Phys., 143, (2015), 054107 
   

================================================================================

----- Orbital basis set information -----
Your calculation utilizes the basis: def2-mSVP

----- AuxJ basis set information -----
Your calculation utilizes the auxiliary basis: def2/J
   F. Weigend, Phys. Chem. Chem. Phys. 8, 1057 (2006).

================================================================================
                                        WARNINGS
                       Please study these warnings very carefully!
================================================================================


INFO   : the flag for use of the SHARK integral package has been found!

================================================================================
                                       INPUT FILE
================================================================================
NAME = pbeh-3c.inp
|  1> ! PBEh-3c def2/J TightSCF DefGrid3
|  2> 
|  3> %maxcore 60000
|  4> 
|  5> %pal
|  6> nprocs 4
|  7> end
|  8> 
|  9> *xyzfile 0 1 22.xyz
| 10> 
| 11>                          ****END OF INPUT****
================================================================================

                       ****************************
                       * Single Point Calculation *
                       ****************************

---------------------------------
CARTESIAN COORDINATES (ANGSTROEM)
---------------------------------
  C     -2.048619    0.948531   -0.144119
  C     -1.504594    0.032773    0.759225
  C     -2.189092   -1.144825    1.052599
  C     -3.415834   -1.418458    0.453818
  C     -3.955886   -0.499170   -0.444871
  C     -3.278563    0.677646   -0.745381
  C      1.995463    0.971189    0.113781
  C      1.548891    0.254371   -0.993184
  C      2.200225   -0.922292   -1.348580
  C      3.290056   -1.381876   -0.610632
  C      3.728172   -0.655005    0.492876
  C      3.080972    0.523035    0.860281
  H     -3.684680    1.398120   -1.441528
  H     -0.565325    2.149337   -0.042229
  H      1.742773    2.533435    1.193943
  H     -0.552164    0.241342    1.228488
  H     -1.756626   -1.847461    1.752074
  H     -3.943980   -2.332702    0.684026
  H     -4.908587   -0.697609   -0.916901
  H      0.703039    0.621483   -1.557627
  H      1.850634   -1.480288   -2.205953
  H      3.791511   -2.296469   -0.892435
  H      4.572252   -1.000325    1.073495
  H      3.418374    1.087723    1.721181
  O     -1.430017    2.114538   -0.478889
  O      1.311605    2.122958    0.436545

----------------------------
CARTESIAN COORDINATES (A.U.)
----------------------------
  NO LB      ZA    FRAG     MASS         X           Y           Z
   0 C     6.0000    0    12.011   -3.871328    1.792464   -0.272346
   1 C     6.0000    0    12.011   -2.843270    0.061932    1.434727
   2 C     6.0000    0    12.011   -4.136784   -2.163406    1.989125
   3 C     6.0000    0    12.011   -6.454991   -2.680498    0.857592
   4 C     6.0000    0    12.011   -7.475542   -0.943294   -0.840685
   5 C     6.0000    0    12.011   -6.195586    1.280565   -1.408567
   6 C     6.0000    0    12.011    3.770878    1.835282    0.215014
   7 C     6.0000    0    12.011    2.926979    0.480692   -1.876846
   8 C     6.0000    0    12.011    4.157822   -1.742879   -2.548447
   9 C     6.0000    0    12.011    6.217304   -2.611367   -1.153928
  10 C     6.0000    0    12.011    7.045225   -1.237781    0.931400
  11 C     6.0000    0    12.011    5.822193    0.988393    1.625695
  12 H     1.0000    0     1.008   -6.963036    2.642064   -2.724093
  13 H     1.0000    0     1.008   -1.068309    4.061659   -0.079802
  14 H     1.0000    0     1.008    3.293363    4.787499    2.256225
  15 H     1.0000    0     1.008   -1.043438    0.456070    2.321506
  16 H     1.0000    0     1.008   -3.319543   -3.491195    3.310939
  17 H     1.0000    0     1.008   -7.453042   -4.408169    1.292623
  18 H     1.0000    0     1.008   -9.275885   -1.318290   -1.732691
  19 H     1.0000    0     1.008    1.328551    1.174433   -2.943489
  20 H     1.0000    0     1.008    3.497192   -2.797339   -4.168648
  21 H     1.0000    0     1.008    7.164918   -4.339698   -1.686458
  22 H     1.0000    0     1.008    8.640304   -1.890341    2.028612
  23 H     1.0000    0     1.008    6.459790    2.055498    3.252561
  24 O     8.0000    0    15.999   -2.702341    3.995897   -0.904969
  25 O     8.0000    0    15.999    2.478574    4.011809    0.824950

--------------------------------
INTERNAL COORDINATES (ANGSTROEM)
--------------------------------
 C      0   0   0     0.000000000000     0.00000000     0.00000000
 C      1   0   0     1.396641311612     0.00000000     0.00000000
 C      2   1   0     1.393321000862   119.93352485     0.00000000
 C      3   2   1     1.392232341555   120.55929643   359.89828385
 C      4   3   2     1.394413841996   119.26662207   359.94754667
 C      5   4   3     1.390671903932   120.56531860     0.16545904
 C      2   1   3     3.680708981237    95.15287490   152.32780959
 C      7   2   1     1.392345624765    72.73247997   286.80289491
 C      8   7   2     1.391070724173   119.23677339   239.78330417
 C      9   8   7     1.394100327079   120.64037762   359.85062980
 C     10   9   8     1.392126581513   119.57017296     0.05346842
 C      7   2   1     1.391558625074   124.44402364   170.98267387
 H      6   5   4     1.081033468121   121.34309180   179.88498261
 H      1   2   3     1.911145842853    94.31130584   182.07011328
 H      7   2   1     1.916041377081    89.06097476    77.24368307
 H      2   1   3     1.082049982715   119.80037891   179.99071555
 H      3   2   1     1.081659795708   119.25906502   179.85953702
 H      4   3   2     1.080636962672   120.35122677   180.01839117
 H      5   4   3     1.081585874457   120.09669757   180.07299233
 H      8   7   2     1.081125550801   119.41930398    59.66893546
 H      9   8   7     1.081047093611   119.19697178   179.77188252
 H     10   9   8     1.080440724474   120.25319753   180.01851894
 H     11  10   9     1.081126806592   120.30765832   180.01201719
 H     12   7   2     1.083448888581   120.08806336   269.50858519
 O     14   1   2     0.969317244050    42.35967788   183.15129377
 O     15   7   2     0.963353051695    42.97829342   306.80485547

---------------------------
INTERNAL COORDINATES (A.U.)
---------------------------
 C      0   0   0     0.000000000000     0.00000000     0.00000000
 C      1   0   0     2.639269586268     0.00000000     0.00000000
 C      2   1   0     2.632995108270   119.93352485     0.00000000
 C      3   2   1     2.630937840327   120.55929643   359.89828385
 C      4   3   2     2.635060278722   119.26662207   359.94754667
 C      5   4   3     2.627989040570   120.56531860     0.16545904
 C      2   1   3     6.955531953203    95.15287490   152.32780959
 C      7   2   1     2.631151914569    72.73247997   286.80289491
 C      8   7   2     2.628742701602   119.23677339   239.78330417
 C      9   8   7     2.634467821390   120.64037762   359.85062980
 C     10   9   8     2.630737982811   119.57017296     0.05346842
 C      7   2   1     2.629664700685   124.44402364   170.98267387
 H      6   5   4     2.042857196351   121.34309180   179.88498261
 H      1   2   3     3.611542244975    94.31130584   182.07011328
 H      7   2   1     3.620793463944    89.06097476    77.24368307
 H      2   1   3     2.044778130545   119.80037891   179.99071555
 H      3   2   1     2.044040783962   119.25906502   179.85953702
 H      4   3   2     2.042107909642   120.35122677   180.01839117
 H      5   4   3     2.043901093042   120.09669757   180.07299233
 H      8   7   2     2.043031207398   119.41930398    59.66893546
 H      9   8   7     2.042882944797   119.19697178   179.77188252
 H     10   9   8     2.041737073191   120.25319753   180.01851894
 H     11  10   9     2.043033580500   120.30765832   180.01201719
 H     12   7   2     2.047421679519   120.08806336   269.50858519
 O     14   1   2     1.831744128142    42.35967788   183.15129377
 O     15   7   2     1.820473437980    42.97829342   306.80485547

---------------------
BASIS SET INFORMATION
---------------------
There are 3 groups of distinct atoms

 Group   1 Type C   : 8s4p1d contracted to 4s2p1d pattern {5111/31/1}
 Group   2 Type H   : 4s contracted to 2s pattern {31}
 Group   3 Type O   : 8s4p1d contracted to 4s2p1d pattern {5111/31/1}

Atom   0C    basis set group =>   1
Atom   1C    basis set group =>   1
Atom   2C    basis set group =>   1
Atom   3C    basis set group =>   1
Atom   4C    basis set group =>   1
Atom   5C    basis set group =>   1
Atom   6C    basis set group =>   1
Atom   7C    basis set group =>   1
Atom   8C    basis set group =>   1
Atom   9C    basis set group =>   1
Atom  10C    basis set group =>   1
Atom  11C    basis set group =>   1
Atom  12H    basis set group =>   2
Atom  13H    basis set group =>   2
Atom  14H    basis set group =>   2
Atom  15H    basis set group =>   2
Atom  16H    basis set group =>   2
Atom  17H    basis set group =>   2
Atom  18H    basis set group =>   2
Atom  19H    basis set group =>   2
Atom  20H    basis set group =>   2
Atom  21H    basis set group =>   2
Atom  22H    basis set group =>   2
Atom  23H    basis set group =>   2
Atom  24O    basis set group =>   3
Atom  25O    basis set group =>   3
---------------------------------
AUXILIARY/J BASIS SET INFORMATION
---------------------------------
There are 3 groups of distinct atoms

 Group   1 Type C   : 12s5p4d2f1g contracted to 6s4p3d1f1g pattern {711111/2111/211/2/1}
 Group   2 Type H   : 5s2p1d contracted to 3s1p1d pattern {311/2/1}
 Group   3 Type O   : 12s5p4d2f1g contracted to 6s4p3d1f1g pattern {711111/2111/211/2/1}

Atom   0C    basis set group =>   1
Atom   1C    basis set group =>   1
Atom   2C    basis set group =>   1
Atom   3C    basis set group =>   1
Atom   4C    basis set group =>   1
Atom   5C    basis set group =>   1
Atom   6C    basis set group =>   1
Atom   7C    basis set group =>   1
Atom   8C    basis set group =>   1
Atom   9C    basis set group =>   1
Atom  10C    basis set group =>   1
Atom  11C    basis set group =>   1
Atom  12H    basis set group =>   2
Atom  13H    basis set group =>   2
Atom  14H    basis set group =>   2
Atom  15H    basis set group =>   2
Atom  16H    basis set group =>   2
Atom  17H    basis set group =>   2
Atom  18H    basis set group =>   2
Atom  19H    basis set group =>   2
Atom  20H    basis set group =>   2
Atom  21H    basis set group =>   2
Atom  22H    basis set group =>   2
Atom  23H    basis set group =>   2
Atom  24O    basis set group =>   3
Atom  25O    basis set group =>   3


           ************************************************************
           *        Program running with 4 parallel MPI-processes     *
           *              working on a common directory               *
           ************************************************************
------------------------------------------------------------------------------
                           ORCA GTO INTEGRAL CALCULATION
                           -- RI-GTO INTEGRALS CHOSEN --
------------------------------------------------------------------------------
------------------------------------------------------------------------------
                   ___                                                        
                  /   \      - P O W E R E D   B Y -                         
                 /     \                                                     
                 |  |  |   _    _      __       _____    __    __             
                 |  |  |  | |  | |    /  \     |  _  \  |  |  /  |          
                  \  \/   | |  | |   /    \    | | | |  |  | /  /          
                 / \  \   | |__| |  /  /\  \   | |_| |  |  |/  /          
                |  |  |   |  __  | /  /__\  \  |    /   |      \           
                |  |  |   | |  | | |   __   |  |    \   |  |\   \          
                \     /   | |  | | |  |  |  |  | |\  \  |  | \   \       
                 \___/    |_|  |_| |__|  |__|  |_| \__\ |__|  \__/        
                                                                              
                      - O R C A' S   B I G   F R I E N D -                    
                                      &                                       
                       - I N T E G R A L  F E E D E R -                       
                                                                              
 v1 FN, 2020, v2 2021                                                         
------------------------------------------------------------------------------


Reading SHARK input file pbeh-3c.SHARKINP.tmp ... ok
----------------------
SHARK INTEGRAL PACKAGE
----------------------

Number of atoms                             ...     26
Number of basis functions                   ...    234
Number of shells                            ...    122
Maximum angular momentum                    ...      2
Integral batch strategy                     ... SHARK/LIBINT Hybrid
RI-J (if used) integral strategy            ... SPLIT-RIJ (Revised 2003 algorithm where possible)
Printlevel                                  ...      1
Contraction scheme used                     ... SEGMENTED contraction
Coulomb Range Separation                    ... NOT USED
Exchange Range Separation                   ... NOT USED
Finite Nucleus Model                        ... NOT USED
Auxiliary Coulomb fitting basis             ... AVAILABLE
   # of basis functions in Aux-J            ...    818
   # of shells in Aux-J                     ...    270
   Maximum angular momentum in Aux-J        ...      4
Auxiliary J/K fitting basis                 ... NOT available
Auxiliary Correlation fitting basis         ... NOT available
Auxiliary 'external' fitting basis          ... NOT available
Integral threshold                          ...     2.500000e-11
Primitive cut-off                           ...     2.500000e-12
Primitive pair pre-selection threshold      ...     2.500000e-12

Calculating pre-screening integrals         ... done (  0.2 sec) Dimension = 122
Organizing shell pair data                  ... done (  0.5 sec)
Shell pair information
Total number of shell pairs                 ...      7503
Shell pairs after pre-screening             ...      5645
Total number of primitive shell pairs       ...     26783
Primitive shell pairs kept                  ...     13329
          la=0 lb=0:   2211 shell pairs
          la=1 lb=0:   1888 shell pairs
          la=1 lb=1:    379 shell pairs
          la=2 lb=0:    762 shell pairs
          la=2 lb=1:    332 shell pairs
          la=2 lb=2:     73 shell pairs

Calculating one electron integrals          ... done (  0.1 sec)
Calculating RI/J V-Matrix + Cholesky decomp.... done (  0.7 sec)
Calculating Nuclear repulsion               ... done (  0.0 sec) ENN=    805.117511097623 Eh

SHARK setup successfully completed in   2.3 seconds

Maximum memory used throughout the entire GTOINT-calculation: 14.1 MB


           ************************************************************
           *        Program running with 4 parallel MPI-processes     *
           *              working on a common directory               *
           ************************************************************
-------------------------------------------------------------------------------
                                 ORCA SCF
-------------------------------------------------------------------------------

------------
SCF SETTINGS
------------
Hamiltonian:
 Density Functional     Method          .... DFT(GTOs)
 Exchange Functional    Exchange        .... PBE
   PBE kappa parameter   XKappa         ....  1.024500
   PBE mue parameter    XMuePBE         ....  0.123457
 Correlation Functional Correlation     .... PBE
   PBE beta parameter  CBetaPBE         ....  0.030000
 LDA part of GGA corr.  LDAOpt          .... PW91-LDA
 Gradients option       PostSCFGGA      .... off
 Hybrid DFT is turned on
   Fraction HF Exchange ScalHFX         ....  0.420000
   Scaling of DF-GGA-X  ScalDFX         ....  0.580000
   Scaling of DF-GGA-C  ScalDFC         ....  1.000000
   Scaling of DF-LDA-C  ScalLDAC        ....  1.000000
   Perturbative correction              ....  0.000000
   Density functional embedding theory  .... OFF
 RI-approximation to the Coulomb term is turned on
   Number of AuxJ basis functions       .... 818
   RIJ-ON(X) (HFX calculated with O(N)) .... on
   Number of AuxJ basis functions       .... 818
   RIJ-COSX (HFX calculated with COS-X)).... on


General Settings:
 Integral files         IntName         .... pbeh-3c
 Hartree-Fock type      HFTyp           .... RHF
 Total Charge           Charge          ....    0
 Multiplicity           Mult            ....    1
 Number of Electrons    NEL             ....  100
 Basis Dimension        Dim             ....  234
 Nuclear Repulsion      ENuc            ....    805.1175110976 Eh

Convergence Acceleration:
 DIIS                   CNVDIIS         .... on
   Start iteration      DIISMaxIt       ....    12
   Startup error        DIISStart       ....  0.200000
   # of expansion vecs  DIISMaxEq       ....     5
   Bias factor          DIISBfac        ....   1.050
   Max. coefficient     DIISMaxC        ....  10.000
 Trust-Rad. Augm. Hess. CNVTRAH         .... auto
   Auto Start mean grad. ratio tolernc. ....  1.125000
   Auto Start start iteration           ....    20
   Auto Start num. interpolation iter.  ....    10
   Max. Number of Micro iterations      ....    16
   Max. Number of Macro iterations      .... Maxiter - #DIIS iter
   Number of Davidson start vectors     ....     2
   Converg. threshold I  (grad. norm)   ....   1.000e-05
   Converg. threshold II (energy diff.) ....   1.000e-08
   Grad. Scal. Fac. for Micro threshold ....   0.100
   Minimum threshold for Micro iter.    ....   0.010
   NR start threshold (gradient norm)   ....   0.001
   Initial trust radius                 ....   0.400
   Minimum AH scaling param. (alpha)    ....   1.000
   Maximum AH scaling param. (alpha)    .... 1000.000
   Orbital update algorithm             .... Taylor
   White noise on init. David. guess    .... on
   Maximum white noise                  ....   0.010
   Quad. conv. algorithm                .... NR
   COSX micro iterations for RIJONX calc.... off
 SOSCF                  CNVSOSCF        .... on
   Start iteration      SOSCFMaxIt      ....   150
   Startup grad/error   SOSCFStart      ....  0.003300
 Level Shifting         CNVShift        .... on
   Level shift para.    LevelShift      ....    0.2500
   Turn off err/grad.   ShiftErr        ....    0.0010
 Zerner damping         CNVZerner       .... off
 Static damping         CNVDamp         .... on
   Fraction old density DampFac         ....    0.7000
   Max. Damping (<1)    DampMax         ....    0.9800
   Min. Damping (>=0)   DampMin         ....    0.0000
   Turn off err/grad.   DampErr         ....    0.1000
 Fernandez-Rico         CNVRico         .... off

SCF Procedure:
 Maximum # iterations   MaxIter         ....   125
 SCF integral mode      SCFMode         .... Direct
   Integral package                     .... SHARK and LIBINT hybrid scheme
 Reset frequency        DirectResetFreq ....    20
 Integral Threshold     Thresh          ....  2.500e-11 Eh
 Primitive CutOff       TCut            ....  2.500e-12 Eh

Convergence Tolerance:
 Convergence Check Mode ConvCheckMode   .... Total+1el-Energy
 Convergence forced     ConvForced      .... 0
 Energy Change          TolE            ....  1.000e-08 Eh
 1-El. energy change                    ....  1.000e-05 Eh
 Orbital Gradient       TolG            ....  1.000e-05
 Orbital Rotation angle TolX            ....  1.000e-05
 DIIS Error             TolErr          ....  5.000e-07


Diagonalization of the overlap matrix:
Smallest eigenvalue                        ... 5.184e-04
Time for diagonalization                   ...    0.036 sec
Threshold for overlap eigenvalues          ... 1.000e-08
Number of eigenvalues below threshold      ... 0
Time for construction of square roots      ...    0.341 sec
Total time needed                          ...    0.541 sec

--------------------------------
INITIAL GUESS: MINIMAL BASIS EHT
--------------------------------
The minimal basis has 82 functions
EHT matrix was diagonalized
Basis set overlap was calculated now projecting the orbitals
Using GuessMode=FMatrix for the initial guess
C*T matrix was formed
Effective Fockian was calculated
Effective Fockian was diagonalized
Initial density was built
                      ------------------
                      INITIAL GUESS DONE
                      ------------------
-------------------
DFT GRID GENERATION
-------------------

General Integration Accuracy     IntAcc      ... 4.959
Radial Grid Type                 RadialGrid  ... OptM3 with GC (2021)
Angular Grid (max. ang.)         AngularGrid ... 6 (Lebedev-590)
Angular grid pruning method      GridPruning ... 4 (adaptive)
Weight generation scheme         WeightScheme... Becke
Basis function cutoff            BFCut       ... 1.0000e-11
Integration weight cutoff        WCut        ... 1.0000e-14
Angular grids for H and He will be reduced by one unit
Partially contracted basis set               ... off
Rotationally invariant grid construction     ... off

Total number of grid points                  ...   303736
Total number of batches                      ...     4760
Average number of points per batch           ...       63
Average number of grid points per atom       ...    11682
Time for grid setup =    5.777 sec

--------------------
COSX GRID GENERATION
--------------------

GRIDX 1
-------
General Integration Accuracy     IntAcc      ... 4.020
Radial Grid Type                 RadialGrid  ... OptM3 with GC (2021)
Angular Grid (max. ang.)         AngularGrid ... 2 (Lebedev-110)
Angular grid pruning method      GridPruning ... 4 (adaptive)
Weight generation scheme         WeightScheme... Becke
Basis function cutoff            BFCut       ... 1.0000e-11
Integration weight cutoff        WCut        ... 1.0000e-14
Angular grids for H and He will be reduced by one unit
Partially contracted basis set               ... on
Rotationally invariant grid construction     ... off

Total number of grid points                  ...    34076
Total number of batches                      ...      544
Average number of points per batch           ...       62
Average number of grid points per atom       ...     1311
UseSFitting                                  ... on

GRIDX 2
-------
General Integration Accuracy     IntAcc      ... 4.338
Radial Grid Type                 RadialGrid  ... OptM3 with GC (2021)
Angular Grid (max. ang.)         AngularGrid ... 3 (Lebedev-194)
Angular grid pruning method      GridPruning ... 4 (adaptive)
Weight generation scheme         WeightScheme... Becke
Basis function cutoff            BFCut       ... 1.0000e-11
Integration weight cutoff        WCut        ... 1.0000e-14
Angular grids for H and He will be reduced by one unit
Partially contracted basis set               ... on
Rotationally invariant grid construction     ... off

Total number of grid points                  ...    74516
Total number of batches                      ...     1174
Average number of points per batch           ...       63
Average number of grid points per atom       ...     2866
UseSFitting                                  ... on

GRIDX 3
-------
General Integration Accuracy     IntAcc      ... 4.871
Radial Grid Type                 RadialGrid  ... OptM3 with GC (2021)
Angular Grid (max. ang.)         AngularGrid ... 4 (Lebedev-302)
Angular grid pruning method      GridPruning ... 4 (adaptive)
Weight generation scheme         WeightScheme... Becke
Basis function cutoff            BFCut       ... 1.0000e-11
Integration weight cutoff        WCut        ... 1.0000e-14
Angular grids for H and He will be reduced by one unit
Partially contracted basis set               ... on
Rotationally invariant grid construction     ... off

Total number of grid points                  ...   140712
Total number of batches                      ...     2213
Average number of points per batch           ...       63
Average number of grid points per atom       ...     5412
UseSFitting                                  ... on

Time for X-Grid setup             =    5.538 sec

--------------
SCF ITERATIONS
--------------
ITER       Energy         Delta-E        Max-DP      RMS-DP      [F,P]     Damp
               ***  Starting incremental Fock matrix formation  ***
  0   -612.0229800412   0.000000000000 0.15282836  0.00420987  0.4456291 0.7000
  1   -612.5247959243  -0.501815883110 0.08464618  0.00281765  0.2926417 0.7000
  2   -612.8477609135  -0.322964989234 0.04761984  0.00190453  0.2049994 0.7000
                               ***Turning on DIIS***
  3   -613.0751980184  -0.227437104848 0.03171578  0.00134524  0.1435621 0.7000
  4   -613.2374353350  -0.162237316557 0.02468333  0.00101592  0.1005692 0.7000
  5   -613.3526189137  -0.115183578793 0.05447870  0.00249354  0.0705567 0.0000
                      *** Initiating the SOSCF procedure ***
                           *** Shutting down DIIS ***
                      *** Re-Reading the Fockian *** 
                      *** Removing any level shift *** 
ITER      Energy       Delta-E        Grad      Rot      Max-DP    RMS-DP
  6   -613.62765673  -0.2750378201  0.001235  0.001235  0.002558  0.000097
               *** Restarting incremental Fock matrix formation ***
  7   -613.62780115  -0.0001444114  0.000537  0.001065  0.001062  0.000049
  8   -613.62782308  -0.0000219356  0.000197  0.000645  0.000867  0.000028
  9   -613.62782450  -0.0000014147  0.000181  0.000324  0.000326  0.000012
 10   -613.62782610  -0.0000016030  0.000062  0.000158  0.000127  0.000004
 11   -613.62782609   0.0000000078  0.000058  0.000077  0.000066  0.000002
 12   -613.62782616  -0.0000000698  0.000004  0.000012  0.000009  0.000000
 13   -613.62782615   0.0000000100  0.000004  0.000006  0.000005  0.000000
                  ***Gradient check signals convergence***
              ***Rediagonalizing the Fockian in SOSCF/NRSCF***

               *****************************************************
               *                     SUCCESS                       *
               *           SCF CONVERGED AFTER  14 CYCLES          *
               *****************************************************

Old exchange energy                            =    -34.820241910 Eh
New exchange energy                            =    -34.820232451 Eh
Exchange energy change after final integration =      0.000009460 Eh
Total energy after final integration           =   -613.627816699 Eh
Final COS-X integration done in                =    13.541 sec

----------------
TOTAL SCF ENERGY
----------------

Total Energy       :         -613.62781670 Eh          -16697.66179 eV

Components:
Nuclear Repulsion  :          805.11751110 Eh           21908.36128 eV
Electronic Energy  :        -1418.74532780 Eh          -38606.02306 eV
One Electron Energy:        -2430.22652798 Eh          -66129.82580 eV
Two Electron Energy:         1011.48120018 Eh           27523.80274 eV
Max COSX asymmetry :            0.00000272 Eh               0.00007 eV

Virial components:
Potential Energy   :        -1222.51850706 Eh          -33266.41981 eV
Kinetic Energy     :          608.89069036 Eh           16568.75802 eV
Virial Ratio       :            2.00777993


DFT components:
N(Alpha)           :       50.000004814523 electrons
N(Beta)            :       50.000004814523 electrons
N(Total)           :      100.000009629046 electrons
E(X)               :      -46.281015325411 Eh       
E(C)               :       -4.368421460899 Eh       
E(XC)              :      -50.649436786310 Eh       
DFET-embed. en.    :        0.000000000000 Eh       

---------------
SCF CONVERGENCE
---------------

  Last Energy change         ...   -8.1259e-09  Tolerance :   1.0000e-08
  Last MAX-Density change    ...    2.4425e-15  Tolerance :   1.0000e-07
  Last RMS-Density change    ...    3.7875e-17  Tolerance :   5.0000e-09
  Last Orbital Gradient      ...    5.0836e-07  Tolerance :   1.0000e-05
  Last Orbital Rotation      ...    1.4868e-06  Tolerance :   1.0000e-05

             **** THE GBW FILE WAS UPDATED (pbeh-3c.gbw) ****
             **** DENSITY pbeh-3c.scfp WAS UPDATED ****
             **** ENERGY FILE WAS UPDATED (pbeh-3c.en.tmp) ****
             **** THE GBW FILE WAS UPDATED (pbeh-3c.gbw) ****
             **** DENSITY pbeh-3c.scfp WAS UPDATED ****
----------------
ORBITAL ENERGIES
----------------

  NO   OCC          E(Eh)            E(eV) 
   0   2.0000     -19.555581      -532.1344 
   1   2.0000     -19.504745      -530.7511 
   2   2.0000     -10.527143      -286.4581 
   3   2.0000     -10.499219      -285.6983 
   4   2.0000     -10.463914      -284.7376 
   5   2.0000     -10.462881      -284.7095 
   6   2.0000     -10.460294      -284.6391 
   7   2.0000     -10.454490      -284.4811 
   8   2.0000     -10.452790      -284.4349 
   9   2.0000     -10.441712      -284.1334 
  10   2.0000     -10.440542      -284.1016 
  11   2.0000     -10.435202      -283.9563 
  12   2.0000     -10.431134      -283.8456 
  13   2.0000     -10.430876      -283.8386 
  14   2.0000      -1.196799       -32.5665 
  15   2.0000      -1.152903       -31.3721 
  16   2.0000      -0.963515       -26.2186 
  17   2.0000      -0.938476       -25.5372 
  18   2.0000      -0.852947       -23.2099 
  19   2.0000      -0.842442       -22.9240 
  20   2.0000      -0.828880       -22.5550 
  21   2.0000      -0.815976       -22.2038 
  22   2.0000      -0.718291       -19.5457 
  23   2.0000      -0.694887       -18.9088 
  24   2.0000      -0.688489       -18.7347 
  25   2.0000      -0.667097       -18.1526 
  26   2.0000      -0.630177       -17.1480 
  27   2.0000      -0.602467       -16.3940 
  28   2.0000      -0.580118       -15.7858 
  29   2.0000      -0.559374       -15.2213 
  30   2.0000      -0.544594       -14.8191 
  31   2.0000      -0.520357       -14.1596 
  32   2.0000      -0.512858       -13.9556 
  33   2.0000      -0.497860       -13.5475 
  34   2.0000      -0.496904       -13.5214 
  35   2.0000      -0.490162       -13.3380 
  36   2.0000      -0.476640       -12.9700 
  37   2.0000      -0.471622       -12.8335 
  38   2.0000      -0.458626       -12.4798 
  39   2.0000      -0.436780       -11.8854 
  40   2.0000      -0.428512       -11.6604 
  41   2.0000      -0.410813       -11.1788 
  42   2.0000      -0.408490       -11.1156 
  43   2.0000      -0.406169       -11.0524 
  44   2.0000      -0.381742       -10.3877 
  45   2.0000      -0.379713       -10.3325 
  46   2.0000      -0.307211        -8.3596 
  47   2.0000      -0.286179        -7.7873 
  48   2.0000      -0.280725        -7.6389 
  49   2.0000      -0.252231        -6.8636 
  50   0.0000       0.003818         0.1039 
  51   0.0000       0.020552         0.5592 
  52   0.0000       0.028457         0.7744 
  53   0.0000       0.045543         1.2393 
  54   0.0000       0.095342         2.5944 
  55   0.0000       0.128976         3.5096 
  56   0.0000       0.150936         4.1072 
  57   0.0000       0.174537         4.7494 
  58   0.0000       0.191080         5.1996 
  59   0.0000       0.198739         5.4080 
  60   0.0000       0.204530         5.5656 
  61   0.0000       0.210194         5.7197 
  62   0.0000       0.215163         5.8549 
  63   0.0000       0.221157         6.0180 
  64   0.0000       0.233359         6.3500 
  65   0.0000       0.235664         6.4128 
  66   0.0000       0.248174         6.7531 
  67   0.0000       0.254428         6.9234 
  68   0.0000       0.269394         7.3306 
  69   0.0000       0.290875         7.9151 
  70   0.0000       0.314894         8.5687 
  71   0.0000       0.321661         8.7528 
  72   0.0000       0.331344         9.0163 
  73   0.0000       0.344483         9.3739 
  74   0.0000       0.356696         9.7062 
  75   0.0000       0.368634        10.0310 
  76   0.0000       0.380865        10.3639 
  77   0.0000       0.396759        10.7964 
  78   0.0000       0.465082        12.6555 
  79   0.0000       0.487150        13.2560 
  80   0.0000       0.496478        13.5099 
  81   0.0000       0.525296        14.2940 
  82   0.0000       0.549249        14.9458 
  83   0.0000       0.553711        15.0672 
  84   0.0000       0.569875        15.5071 
  85   0.0000       0.576293        15.6817 
  86   0.0000       0.579151        15.7595 
  87   0.0000       0.587260        15.9802 
  88   0.0000       0.597766        16.2660 
  89   0.0000       0.600742        16.3470 
  90   0.0000       0.606722        16.5097 
  91   0.0000       0.609801        16.5935 
  92   0.0000       0.615702        16.7541 
  93   0.0000       0.620452        16.8834 
  94   0.0000       0.625748        17.0275 
  95   0.0000       0.630010        17.1434 
  96   0.0000       0.633031        17.2257 
  97   0.0000       0.638522        17.3751 
  98   0.0000       0.646796        17.6002 
  99   0.0000       0.649109        17.6631 
 100   0.0000       0.662710        18.0332 
 101   0.0000       0.665064        18.0973 
 102   0.0000       0.677125        18.4255 
 103   0.0000       0.692207        18.8359 
 104   0.0000       0.706456        19.2236 
 105   0.0000       0.715998        19.4833 
 106   0.0000       0.730283        19.8720 
 107   0.0000       0.735390        20.0110 
 108   0.0000       0.766127        20.8474 
 109   0.0000       0.809735        22.0340 
 110   0.0000       0.849592        23.1186 
 111   0.0000       0.862648        23.4738 
 112   0.0000       0.924196        25.1487 
 113   0.0000       0.939917        25.5764 
 114   0.0000       0.951701        25.8971 
 115   0.0000       0.955935        26.0123 
 116   0.0000       0.960369        26.1330 
 117   0.0000       0.969486        26.3810 
 118   0.0000       0.974056        26.5054 
 119   0.0000       0.981738        26.7144 
 120   0.0000       0.988782        26.9061 
 121   0.0000       1.008388        27.4396 
 122   0.0000       1.021183        27.7878 
 123   0.0000       1.026039        27.9199 
 124   0.0000       1.039823        28.2950 
 125   0.0000       1.046622        28.4800 
 126   0.0000       1.054458        28.6933 
 127   0.0000       1.064739        28.9730 
 128   0.0000       1.074760        29.2457 
 129   0.0000       1.085647        29.5420 
 130   0.0000       1.093876        29.7659 
 131   0.0000       1.104049        30.0427 
 132   0.0000       1.125856        30.6361 
 133   0.0000       1.136122        30.9155 
 134   0.0000       1.145006        31.1572 
 135   0.0000       1.165445        31.7134 
 136   0.0000       1.183779        32.2123 
 137   0.0000       1.209252        32.9054 
 138   0.0000       1.244284        33.8587 
 139   0.0000       1.255042        34.1514 
 140   0.0000       1.275221        34.7005 
 141   0.0000       1.283597        34.9285 
 142   0.0000       1.290094        35.1052 
 143   0.0000       1.311052        35.6755 
 144   0.0000       1.327850        36.1326 
 145   0.0000       1.346342        36.6358 
 146   0.0000       1.382234        37.6125 
 147   0.0000       1.401066        38.1249 
 148   0.0000       1.428920        38.8829 
 149   0.0000       1.481761        40.3208 
 150   0.0000       1.503545        40.9135 
 151   0.0000       1.506167        40.9849 
 152   0.0000       1.531180        41.6655 
 153   0.0000       1.535285        41.7772 
 154   0.0000       1.543564        42.0025 
 155   0.0000       1.553088        42.2617 
 156   0.0000       1.555773        42.3347 
 157   0.0000       1.559692        42.4414 
 158   0.0000       1.577403        42.9233 
 159   0.0000       1.594551        43.3899 
 160   0.0000       1.776178        48.3323 
 161   0.0000       1.789367        48.6911 
 162   0.0000       1.802305        49.0432 
 163   0.0000       1.813151        49.3383 
 164   0.0000       1.822894        49.6035 
 165   0.0000       1.872258        50.9467 
 166   0.0000       1.878250        51.1098 
 167   0.0000       1.901856        51.7521 
 168   0.0000       1.939756        52.7835 
 169   0.0000       1.961357        53.3712 
 170   0.0000       2.013596        54.7927 
 171   0.0000       2.017227        54.8915 
 172   0.0000       2.039026        55.4847 
 173   0.0000       2.041383        55.5488 
 174   0.0000       2.049630        55.7733 
 175   0.0000       2.075569        56.4791 
 176   0.0000       2.084805        56.7304 
 177   0.0000       2.106141        57.3110 
 178   0.0000       2.144555        58.3563 
 179   0.0000       2.166145        58.9438 
 180   0.0000       2.170957        59.0747 
 181   0.0000       2.193836        59.6973 
 182   0.0000       2.196200        59.7616 
 183   0.0000       2.207214        60.0613 
 184   0.0000       2.216760        60.3211 
 185   0.0000       2.243326        61.0440 
 186   0.0000       2.287774        62.2535 
 187   0.0000       2.288124        62.2630 
 188   0.0000       2.313121        62.9432 
 189   0.0000       2.319553        63.1182 
 190   0.0000       2.362080        64.2755 
 191   0.0000       2.368131        64.4401 
 192   0.0000       2.385252        64.9060 
 193   0.0000       2.388907        65.0055 
 194   0.0000       2.477454        67.4150 
 195   0.0000       2.518919        68.5433 
 196   0.0000       2.538993        69.0895 
 197   0.0000       2.580737        70.2254 
 198   0.0000       2.588270        70.4304 
 199   0.0000       2.599768        70.7433 
 200   0.0000       2.627518        71.4984 
 201   0.0000       2.656380        72.2838 
 202   0.0000       2.711313        73.7786 
 203   0.0000       2.721456        74.0546 
 204   0.0000       2.724937        74.1493 
 205   0.0000       2.741681        74.6049 
 206   0.0000       2.745854        74.7185 
 207   0.0000       2.757334        75.0309 
 208   0.0000       2.769437        75.3602 
 209   0.0000       2.787681        75.8567 
 210   0.0000       2.826308        76.9077 
 211   0.0000       2.862308        77.8874 
 212   0.0000       2.879200        78.3470 
 213   0.0000       2.902869        78.9911 
 214   0.0000       3.013897        82.0123 
 215   0.0000       3.040525        82.7369 
 216   0.0000       3.150145        85.7198 
 217   0.0000       3.185665        86.6863 
 218   0.0000       3.463261        94.2401 
 219   0.0000       3.488064        94.9151 
 220   0.0000      13.218560       359.6953 
 221   0.0000      13.242332       360.3422 
 222   0.0000      13.656216       371.6045 
 223   0.0000      13.669835       371.9751 
 224   0.0000      13.678285       372.2050 
 225   0.0000      13.693873       372.6292 
 226   0.0000      14.119146       384.2015 
 227   0.0000      14.140710       384.7883 
 228   0.0000      14.154755       385.1705 
 229   0.0000      14.172492       385.6531 
 230   0.0000      14.527912       395.3246 
 231   0.0000      14.548206       395.8768 
 232   0.0000      25.728593       700.1106 
 233   0.0000      25.771155       701.2688 

                    ********************************
                    * MULLIKEN POPULATION ANALYSIS *
                    ********************************

-----------------------
MULLIKEN ATOMIC CHARGES
-----------------------
   0 C :    0.344437
   1 C :   -0.346876
   2 C :   -0.206760
   3 C :   -0.246741
   4 C :   -0.208770
   5 C :   -0.298679
   6 C :    0.369185
   7 C :   -0.292024
   8 C :   -0.207162
   9 C :   -0.237355
  10 C :   -0.209674
  11 C :   -0.341595
  12 H :    0.232521
  13 H :    0.460341
  14 H :    0.441663
  15 H :    0.230843
  16 H :    0.216780
  17 H :    0.212478
  18 H :    0.215559
  19 H :    0.264942
  20 H :    0.231497
  21 H :    0.224369
  22 H :    0.227315
  23 H :    0.221039
  24 O :   -0.639678
  25 O :   -0.657656
Sum of atomic charges:    0.0000000

--------------------------------
MULLIKEN REDUCED ORBITAL CHARGES
--------------------------------
  0 C s       :     3.071353  s :     3.071353
      pz      :     0.890370  p :     2.506788
      px      :     0.858310
      py      :     0.758108
      dz2     :     0.011240  d :     0.077422
      dxz     :     0.011854
      dyz     :     0.015023
      dx2y2   :     0.020672
      dxy     :     0.018633
  1 C s       :     3.246343  s :     3.246343
      pz      :     1.018673  p :     3.062933
      px      :     1.059846
      py      :     0.984415
      dz2     :     0.005412  d :     0.037599
      dxz     :     0.006563
      dyz     :     0.007604
      dx2y2   :     0.009513
      dxy     :     0.008508
  2 C s       :     3.245860  s :     3.245860
      pz      :     1.004212  p :     2.920259
      px      :     0.940090
      py      :     0.975958
      dz2     :     0.004190  d :     0.040641
      dxz     :     0.007802
      dyz     :     0.008758
      dx2y2   :     0.009833
      dxy     :     0.010057
  3 C s       :     3.237064  s :     3.237064
      pz      :     0.983624  p :     2.970568
      px      :     0.959816
      py      :     1.027127
      dz2     :     0.007013  d :     0.039109
      dxz     :     0.006939
      dyz     :     0.005953
      dx2y2   :     0.008462
      dxy     :     0.010742
  4 C s       :     3.246825  s :     3.246825
      pz      :     0.971823  p :     2.921291
      px      :     1.025777
      py      :     0.923691
      dz2     :     0.006035  d :     0.040654
      dxz     :     0.007499
      dyz     :     0.007538
      dx2y2   :     0.010890
      dxy     :     0.008692
  5 C s       :     3.253779  s :     3.253779
      pz      :     1.038813  p :     3.007672
      px      :     0.955474
      py      :     1.013386
      dz2     :     0.003934  d :     0.037228
      dxz     :     0.006724
      dyz     :     0.008498
      dx2y2   :     0.009624
      dxy     :     0.008448
  6 C s       :     3.081154  s :     3.081154
      pz      :     0.880039  p :     2.475113
      px      :     0.860769
      py      :     0.734305
      dz2     :     0.013810  d :     0.074548
      dxz     :     0.012149
      dyz     :     0.014202
      dx2y2   :     0.017322
      dxy     :     0.017065
  7 C s       :     3.251641  s :     3.251641
      pz      :     0.968188  p :     3.002847
      px      :     1.051727
      py      :     0.982932
      dz2     :     0.006912  d :     0.037536
      dxz     :     0.007283
      dyz     :     0.008456
      dx2y2   :     0.006693
      dxy     :     0.008192
  8 C s       :     3.252700  s :     3.252700
      pz      :     1.020214  p :     2.914073
      px      :     0.936743
      py      :     0.957116
      dz2     :     0.006476  d :     0.040389
      dxz     :     0.007304
      dyz     :     0.009580
      dx2y2   :     0.008851
      dxy     :     0.008179
  9 C s       :     3.241920  s :     3.241920
      pz      :     0.946815  p :     2.956273
      px      :     0.974889
      py      :     1.034570
      dz2     :     0.008524  d :     0.039162
      dxz     :     0.007483
      dyz     :     0.007643
      dx2y2   :     0.006750
      dxy     :     0.008761
 10 C s       :     3.247932  s :     3.247932
      pz      :     0.972839  p :     2.921305
      px      :     1.016171
      py      :     0.932295
      dz2     :     0.007114  d :     0.040437
      dxz     :     0.009088
      dyz     :     0.008237
      dx2y2   :     0.008076
      dxy     :     0.007922
 11 C s       :     3.243256  s :     3.243256
      pz      :     1.028964  p :     3.060431
      px      :     0.981165
      py      :     1.050303
      dz2     :     0.005698  d :     0.037908
      dxz     :     0.006647
      dyz     :     0.009944
      dx2y2   :     0.008289
      dxy     :     0.007329
 12 H s       :     0.767479  s :     0.767479
 13 H s       :     0.539659  s :     0.539659
 14 H s       :     0.558337  s :     0.558337
 15 H s       :     0.769157  s :     0.769157
 16 H s       :     0.783220  s :     0.783220
 17 H s       :     0.787522  s :     0.787522
 18 H s       :     0.784441  s :     0.784441
 19 H s       :     0.735058  s :     0.735058
 20 H s       :     0.768503  s :     0.768503
 21 H s       :     0.775631  s :     0.775631
 22 H s       :     0.772685  s :     0.772685
 23 H s       :     0.778961  s :     0.778961
 24 O s       :     3.805692  s :     3.805692
      pz      :     1.773186  p :     4.803066
      px      :     1.479270
      py      :     1.550610
      dz2     :     0.003135  d :     0.030919
      dxz     :     0.007732
      dyz     :     0.005674
      dx2y2   :     0.010569
      dxy     :     0.003810
 25 O s       :     3.820655  s :     3.820655
      pz      :     1.605211  p :     4.807193
      px      :     1.708704
      py      :     1.493278
      dz2     :     0.005320  d :     0.029808
      dxz     :     0.007332
      dyz     :     0.004617
      dx2y2   :     0.004513
      dxy     :     0.008026


                     *******************************
                     * LOEWDIN POPULATION ANALYSIS *
                     *******************************

----------------------
LOEWDIN ATOMIC CHARGES
----------------------
   0 C :    0.062877
   1 C :   -0.194483
   2 C :   -0.123282
   3 C :   -0.169435
   4 C :   -0.124081
   5 C :   -0.168544
   6 C :    0.055777
   7 C :   -0.157998
   8 C :   -0.112604
   9 C :   -0.154522
  10 C :   -0.119127
  11 C :   -0.190821
  12 H :    0.143747
  13 H :    0.317132
  14 H :    0.332107
  15 H :    0.137187
  16 H :    0.134941
  17 H :    0.132809
  18 H :    0.134895
  19 H :    0.155217
  20 H :    0.142625
  21 H :    0.138627
  22 H :    0.139869
  23 H :    0.134691
  24 O :   -0.326599
  25 O :   -0.321007

-------------------------------
LOEWDIN REDUCED ORBITAL CHARGES
-------------------------------
  0 C s       :     2.829290  s :     2.829290
      pz      :     0.997118  p :     2.928501
      px      :     1.018911
      py      :     0.912472
      dz2     :     0.024479  d :     0.179332
      dxz     :     0.026710
      dyz     :     0.035310
      dx2y2   :     0.048396
      dxy     :     0.044438
  1 C s       :     2.893782  s :     2.893782
      pz      :     1.063109  p :     3.214768
      px      :     1.073740
      py      :     1.077919
      dz2     :     0.011140  d :     0.085932
      dxz     :     0.012955
      dyz     :     0.018834
      dx2y2   :     0.022174
      dxy     :     0.020829
  2 C s       :     2.892266  s :     2.892266
      pz      :     1.018907  p :     3.139132
      px      :     1.063411
      py      :     1.056814
      dz2     :     0.009027  d :     0.091884
      dxz     :     0.016822
      dyz     :     0.017309
      dx2y2   :     0.023856
      dxy     :     0.024870
  3 C s       :     2.889392  s :     2.889392
      pz      :     1.054027  p :     3.191036
      px      :     1.070473
      py      :     1.066536
      dz2     :     0.014298  d :     0.089007
      dxz     :     0.017516
      dyz     :     0.013381
      dx2y2   :     0.020191
      dxy     :     0.023621
  4 C s       :     2.892800  s :     2.892800
      pz      :     1.020830  p :     3.139679
      px      :     1.054491
      py      :     1.064358
      dz2     :     0.012663  d :     0.091602
      dxz     :     0.014536
      dyz     :     0.018623
      dx2y2   :     0.024782
      dxy     :     0.020998
  5 C s       :     2.892321  s :     2.892321
      pz      :     1.054570  p :     3.191163
      px      :     1.061726
      py      :     1.074867
      dz2     :     0.008216  d :     0.085060
      dxz     :     0.015317
      dyz     :     0.016566
      dx2y2   :     0.023444
      dxy     :     0.021517
  6 C s       :     2.831671  s :     2.831671
      pz      :     1.044203  p :     2.939336
      px      :     1.003380
      py      :     0.891753
      dz2     :     0.031194  d :     0.173216
      dxz     :     0.028013
      dyz     :     0.034271
      dx2y2   :     0.039044
      dxy     :     0.040694
  7 C s       :     2.892151  s :     2.892151
      pz      :     1.050353  p :     3.180377
      px      :     1.064010
      py      :     1.066015
      dz2     :     0.015897  d :     0.085469
      dxz     :     0.015012
      dyz     :     0.021212
      dx2y2   :     0.015077
      dxy     :     0.018272
  8 C s       :     2.893144  s :     2.893144
      pz      :     1.040853  p :     3.128465
      px      :     1.037993
      py      :     1.049620
      dz2     :     0.014045  d :     0.090994
      dxz     :     0.015964
      dyz     :     0.019937
      dx2y2   :     0.020428
      dxy     :     0.020620
  9 C s       :     2.890637  s :     2.890637
      pz      :     1.058480  p :     3.175017
      px      :     1.055795
      py      :     1.060742
      dz2     :     0.019191  d :     0.088869
      dxz     :     0.019230
      dyz     :     0.017600
      dx2y2   :     0.014759
      dxy     :     0.018089
 10 C s       :     2.892381  s :     2.892381
      pz      :     1.048007  p :     3.135482
      px      :     1.037024
      py      :     1.050452
      dz2     :     0.016261  d :     0.091263
      dxz     :     0.018101
      dyz     :     0.020709
      dx2y2   :     0.018177
      dxy     :     0.018016
 11 C s       :     2.891840  s :     2.891840
      pz      :     1.063533  p :     3.212132
      px      :     1.065660
      py      :     1.082938
      dz2     :     0.012521  d :     0.086849
      dxz     :     0.015286
      dyz     :     0.020807
      dx2y2   :     0.019327
      dxy     :     0.018908
 12 H s       :     0.856253  s :     0.856253
 13 H s       :     0.682868  s :     0.682868
 14 H s       :     0.667893  s :     0.667893
 15 H s       :     0.862813  s :     0.862813
 16 H s       :     0.865059  s :     0.865059
 17 H s       :     0.867191  s :     0.867191
 18 H s       :     0.865105  s :     0.865105
 19 H s       :     0.844783  s :     0.844783
 20 H s       :     0.857375  s :     0.857375
 21 H s       :     0.861373  s :     0.861373
 22 H s       :     0.860131  s :     0.860131
 23 H s       :     0.865309  s :     0.865309
 24 O s       :     3.482479  s :     3.482479
      pz      :     1.763338  p :     4.790128
      px      :     1.454502
      py      :     1.572288
      dz2     :     0.005106  d :     0.053992
      dxz     :     0.011191
      dyz     :     0.009522
      dx2y2   :     0.019017
      dxy     :     0.009156
 25 O s       :     3.486149  s :     3.486149
      pz      :     1.586865  p :     4.781963
      px      :     1.693224
      py      :     1.501874
      dz2     :     0.009146  d :     0.052895
      dxz     :     0.010014
      dyz     :     0.010018
      dx2y2   :     0.009182
      dxy     :     0.014535


                      *****************************
                      * MAYER POPULATION ANALYSIS *
                      *****************************

  NA   - Mulliken gross atomic population
  ZA   - Total nuclear charge
  QA   - Mulliken gross atomic charge
  VA   - Mayer's total valence
  BVA  - Mayer's bonded valence
  FA   - Mayer's free valence

  ATOM       NA         ZA         QA         VA         BVA        FA
  0 C      5.6556     6.0000     0.3444     3.8476     3.8476    -0.0000
  1 C      6.3469     6.0000    -0.3469     3.7846     3.7846     0.0000
  2 C      6.2068     6.0000    -0.2068     3.8385     3.8385     0.0000
  3 C      6.2467     6.0000    -0.2467     3.8231     3.8231     0.0000
  4 C      6.2088     6.0000    -0.2088     3.8349     3.8349    -0.0000
  5 C      6.2987     6.0000    -0.2987     3.8035     3.8035     0.0000
  6 C      5.6308     6.0000     0.3692     3.7214     3.7214    -0.0000
  7 C      6.2920     6.0000    -0.2920     3.7874     3.7874     0.0000
  8 C      6.2072     6.0000    -0.2072     3.8386     3.8386     0.0000
  9 C      6.2374     6.0000    -0.2374     3.8152     3.8152     0.0000
 10 C      6.2097     6.0000    -0.2097     3.8463     3.8463     0.0000
 11 C      6.3416     6.0000    -0.3416     3.8057     3.8057    -0.0000
 12 H      0.7675     1.0000     0.2325     0.9097     0.9097     0.0000
 13 H      0.5397     1.0000     0.4603     0.7948     0.7948     0.0000
 14 H      0.5583     1.0000     0.4417     0.7881     0.7881     0.0000
 15 H      0.7692     1.0000     0.2308     0.9098     0.9098     0.0000
 16 H      0.7832     1.0000     0.2168     0.9138     0.9138     0.0000
 17 H      0.7875     1.0000     0.2125     0.9146     0.9146    -0.0000
 18 H      0.7844     1.0000     0.2156     0.9131     0.9131    -0.0000
 19 H      0.7351     1.0000     0.2649     0.9019     0.9019     0.0000
 20 H      0.7685     1.0000     0.2315     0.9084     0.9084     0.0000
 21 H      0.7756     1.0000     0.2244     0.9107     0.9107     0.0000
 22 H      0.7727     1.0000     0.2273     0.9098     0.9098     0.0000
 23 H      0.7790     1.0000     0.2210     0.9105     0.9105    -0.0000
 24 O      8.6397     8.0000    -0.6397     1.9536     1.9536    -0.0000
 25 O      8.6577     8.0000    -0.6577     1.9443     1.9443     0.0000

  Mayer bond orders larger than 0.100000
B(  0-C ,  1-C ) :   1.3481 B(  0-C ,  5-C ) :   1.3661 B(  0-C , 24-O ) :   1.1031 
B(  1-C ,  2-C ) :   1.4249 B(  1-C , 15-H ) :   0.9056 B(  2-C ,  3-C ) :   1.4352 
B(  2-C , 16-H ) :   0.9213 B(  3-C ,  4-C ) :   1.4174 B(  3-C , 17-H ) :   0.9211 
B(  4-C ,  5-C ) :   1.4482 B(  4-C , 18-H ) :   0.9218 B(  5-C , 12-H ) :   0.9108 
B(  6-C ,  7-C ) :   1.3700 B(  6-C , 11-C ) :   1.3608 B(  6-C , 25-O ) :   0.9609 
B(  7-C ,  8-C ) :   1.4494 B(  7-C , 19-H ) :   0.8893 B(  8-C ,  9-C ) :   1.4173 
B(  8-C , 20-H ) :   0.9168 B(  9-C , 10-C ) :   1.4375 B(  9-C , 21-H ) :   0.9175 
B( 10-C , 11-C ) :   1.4290 B( 10-C , 22-H ) :   0.9169 B( 11-C , 23-H ) :   0.9145 
B( 13-H , 24-O ) :   0.6987 B( 14-H , 25-O ) :   0.7730 

-------
TIMINGS
-------

Total SCF time: 0 days 0 hours 2 min 43 sec 

Total time                  ....     163.549 sec
Sum of individual times     ....     155.623 sec  ( 95.2%)

Fock matrix formation       ....     139.951 sec  ( 85.6%)
  Split-RI-J                ....      10.709 sec  (  7.7% of F)
  Chain of spheres X        ....      84.979 sec  ( 60.7% of F)
  XC integration            ....      29.348 sec  ( 21.0% of F)
    Basis function eval.    ....       6.528 sec  ( 22.2% of XC)
    Density eval.           ....       4.035 sec  ( 13.7% of XC)
    XC-Functional eval.     ....       2.192 sec  (  7.5% of XC)
    XC-Potential eval.      ....       2.368 sec  (  8.1% of XC)
Diagonalization             ....       0.705 sec  (  0.4%)
Density matrix formation    ....       0.191 sec  (  0.1%)
Population analysis         ....       0.523 sec  (  0.3%)
Initial guess               ....       0.131 sec  (  0.1%)
Orbital Transformation      ....       0.000 sec  (  0.0%)
Orbital Orthonormalization  ....       0.000 sec  (  0.0%)
DIIS solution               ....       1.420 sec  (  0.9%)
SOSCF solution              ....       1.387 sec  (  0.8%)
Grid generation             ....      11.315 sec  (  6.9%)

Maximum memory used throughout the entire SCF-calculation: 74.1 MB


-------------------------------------------------------------------------------
                          DFT DISPERSION CORRECTION                            
                                                                               
                              DFTD3 V3.1  Rev 1                                
                          USING Becke-Johnson damping                          
-------------------------------------------------------------------------------
The PBEh-3c composite method is recognized
Using three-body term ABC
Active option DFTDOPT                   ...         4   

molecular C6(AA) [au] = 7682.244544 


            DFT-D V3
 parameters
 s6 scaling factor         :     1.0000 
 a1 scaling factor         :     0.4860 
 s8 scaling factor         :     0.0000 
 a2 scaling factor         :     4.5000 
 Damping factor alpha9(ATM):    16.0000 
 ad hoc parameters k1-k3   :    16.0000     1.3333    -4.0000 

 Edisp/kcal,au: -10.030743040733  -0.015985004825 
 E6   /kcal   : -10.093918612 
 E8   /kcal   :  -0.000000000 
 E6(ABC)      :   0.063175572 
 % E8         :   0.000000000 
 % E6(ABC)    :  -0.629819460 

-------------------------   ----------------
Dispersion correction           -0.015985005
-------------------------   ----------------

------------------   -----------------
gCP correction             0.044194040
------------------   -----------------

-------------------------   --------------------
FINAL SINGLE POINT ENERGY      -613.599607663441
-------------------------   --------------------


                            ***************************************
                            *     ORCA property calculations      *
                            ***************************************

                                    ---------------------
                                    Active property flags
                                    ---------------------
   (+) Dipole Moment


------------------------------------------------------------------------------
                       ORCA ELECTRIC PROPERTIES CALCULATION
------------------------------------------------------------------------------

Dipole Moment Calculation                       ... on
Quadrupole Moment Calculation                   ... off
Polarizability Calculation                      ... off
GBWName                                         ... pbeh-3c.gbw
Electron density                                ... pbeh-3c.scfp
The origin for moment calculation is the CENTER OF MASS  = (-0.078447,  0.348995 -0.067592)

-------------
DIPOLE MOMENT
-------------
                                X             Y             Z
Electronic contribution:      0.13643       3.36659      -0.28878
Nuclear contribution   :      1.09280      -3.54499       0.96277
                        -----------------------------------------
Total Dipole Moment    :      1.22923      -0.17841       0.67399
                        -----------------------------------------
Magnitude (a.u.)       :      1.41318
Magnitude (Debye)      :      3.59203



--------------------
Rotational spectrum 
--------------------
 
Rotational constants in cm-1:     0.042870     0.011870     0.010585 
Rotational constants in MHz :  1285.209752   355.858642   317.324199 

 Dipole components along the rotational axes: 
x,y,z [a.u.] :     1.229226     0.178405     0.673990 
x,y,z [Debye]:     3.124443     0.453470     1.713145 

 

Timings for individual modules:

Sum of individual times         ...      167.456 sec (=   2.791 min)
GTO integral calculation        ...        2.900 sec (=   0.048 min)   1.7 %
SCF iterations                  ...      164.556 sec (=   2.743 min)  98.3 %
                             ****ORCA TERMINATED NORMALLY****
TOTAL RUN TIME: 0 days 0 hours 2 minutes 53 seconds 784 msec
