
                                 *****************
                                 * O   R   C   A *
                                 *****************

                                            #,                                       
                                            ###                                      
                                            ####                                     
                                            #####                                    
                                            ######                                   
                                           ########,                                 
                                     ,,################,,,,,                         
                               ,,#################################,,                 
                          ,,##########################################,,             
                       ,#########################################, ''#####,          
                    ,#############################################,,   '####,        
                  ,##################################################,,,,####,       
                ,###########''''           ''''###############################       
              ,#####''   ,,,,##########,,,,          '''####'''          '####       
            ,##' ,,,,###########################,,,                        '##       
           ' ,,###''''                  '''############,,,                           
         ,,##''                                '''############,,,,        ,,,,,,###''
      ,#''                                            '''#######################'''  
     '                                                          ''''####''''         
             ,#######,   #######,   ,#######,      ##                                
            ,#'     '#,  ##    ##  ,#'     '#,    #''#        ######   ,####,        
            ##       ##  ##   ,#'  ##            #'  '#       #        #'  '#        
            ##       ##  #######   ##           ,######,      #####,   #    #        
            '#,     ,#'  ##    ##  '#,     ,#' ,#      #,         ##   #,  ,#        
             '#######'   ##     ##  '#######'  #'      '#     #####' # '####'        



                  #######################################################
                  #                        -***-                        #
                  #          Department of theory and spectroscopy      #
                  #    Directorship and core code : Frank Neese         #
                  #        Max Planck Institute fuer Kohlenforschung    #
                  #                Kaiser Wilhelm Platz 1               #
                  #                 D-45470 Muelheim/Ruhr               #
                  #                      Germany                        #
                  #                                                     #
                  #                  All rights reserved                #
                  #                        -***-                        #
                  #######################################################


                         Program Version 5.0.3 -  RELEASE  -


 With contributions from (in alphabetic order):
   Daniel Aravena         : Magnetic Suceptibility
   Michael Atanasov       : Ab Initio Ligand Field Theory (pilot matlab implementation)
   Alexander A. Auer      : GIAO ZORA, VPT2 properties, NMR spectrum
   Ute Becker             : Parallelization
   Giovanni Bistoni       : ED, misc. LED, open-shell LED, HFLD
   Martin Brehm           : Molecular dynamics
   Dmytro Bykov           : SCF Hessian
   Vijay G. Chilkuri      : MRCI spin determinant printing, contributions to CSF-ICE
   Dipayan Datta          : RHF DLPNO-CCSD density
   Achintya Kumar Dutta   : EOM-CC, STEOM-CC
   Dmitry Ganyushin       : Spin-Orbit,Spin-Spin,Magnetic field MRCI
   Miquel Garcia          : C-PCM and meta-GGA Hessian, CC/C-PCM, Gaussian charge scheme
   Yang Guo               : DLPNO-NEVPT2, F12-NEVPT2, CIM, IAO-localization
   Andreas Hansen         : Spin unrestricted coupled pair/coupled cluster methods
   Benjamin Helmich-Paris : MC-RPA, TRAH-SCF, COSX integrals
   Lee Huntington         : MR-EOM, pCC
   Robert Izsak           : Overlap fitted RIJCOSX, COSX-SCS-MP3, EOM
   Marcus Kettner         : VPT2
   Christian Kollmar      : KDIIS, OOCD, Brueckner-CCSD(T), CCSD density, CASPT2, CASPT2-K
   Simone Kossmann        : Meta GGA functionals, TD-DFT gradient, OOMP2, MP2 Hessian
   Martin Krupicka        : Initial AUTO-CI
   Lucas Lang             : DCDCAS
   Marvin Lechner         : AUTO-CI (C++ implementation), FIC-MRCC
   Dagmar Lenk            : GEPOL surface, SMD
   Dimitrios Liakos       : Extrapolation schemes; Compound Job, initial MDCI parallelization
   Dimitrios Manganas     : Further ROCIS development; embedding schemes
   Dimitrios Pantazis     : SARC Basis sets
   Anastasios Papadopoulos: AUTO-CI, single reference methods and gradients
   Taras Petrenko         : DFT Hessian,TD-DFT gradient, ASA, ECA, R-Raman, ABS, FL, XAS/XES, NRVS
   Peter Pinski           : DLPNO-MP2, DLPNO-MP2 Gradient
   Christoph Reimann      : Effective Core Potentials
   Marius Retegan         : Local ZFS, SOC
   Christoph Riplinger    : Optimizer, TS searches, QM/MM, DLPNO-CCSD(T), (RO)-DLPNO pert. Triples
   Tobias Risthaus        : Range-separated hybrids, TD-DFT gradient, RPA, STAB
   Michael Roemelt        : Original ROCIS implementation
   Masaaki Saitow         : Open-shell DLPNO-CCSD energy and density
   Barbara Sandhoefer     : DKH picture change effects
   Avijit Sen             : IP-ROCIS
   Kantharuban Sivalingam : CASSCF convergence, NEVPT2, FIC-MRCI
   Bernardo de Souza      : ESD, SOC TD-DFT
   Georgi Stoychev        : AutoAux, RI-MP2 NMR, DLPNO-MP2 response
   Willem Van den Heuvel  : Paramagnetic NMR
   Boris Wezisla          : Elementary symmetry handling
   Frank Wennmohs         : Technical directorship


 We gratefully acknowledge several colleagues who have allowed us to
 interface, adapt or use parts of their codes:
   Stefan Grimme, W. Hujo, H. Kruse, P. Pracht,  : VdW corrections, initial TS optimization,
                  C. Bannwarth, S. Ehlert          DFT functionals, gCP, sTDA/sTD-DF
   Ed Valeev, F. Pavosevic, A. Kumar             : LibInt (2-el integral package), F12 methods
   Garnet Chan, S. Sharma, J. Yang, R. Olivares  : DMRG
   Ulf Ekstrom                                   : XCFun DFT Library
   Mihaly Kallay                                 : mrcc  (arbitrary order and MRCC methods)
   Jiri Pittner, Ondrej Demel                    : Mk-CCSD
   Frank Weinhold                                : gennbo (NPA and NBO analysis)
   Christopher J. Cramer and Donald G. Truhlar   : smd solvation model
   Lars Goerigk                                  : TD-DFT with DH, B97 family of functionals
   V. Asgeirsson, H. Jonsson                     : NEB implementation
   FAccTs GmbH                                   : IRC, NEB, NEB-TS, DLPNO-Multilevel, CI-OPT
                                                   MM, QMMM, 2- and 3-layer-ONIOM, Crystal-QMMM,
                                                   LR-CPCM, SF, NACMEs, symmetry and pop. for TD-DFT,
                                                   nearIR, NL-DFT gradient (VV10), updates on ESD,
                                                   ML-optimized integration grids
   S Lehtola, MJT Oliveira, MAL Marques          : LibXC Library
   Liviu Ungur et al                             : ANISO software


 Your calculation uses the libint2 library for the computation of 2-el integrals
 For citations please refer to: http://libint.valeyev.net

 Your ORCA version has been built with support for libXC version: 5.1.0
 For citations please refer to: https://tddft.org/programs/libxc/

 This ORCA versions uses:
   CBLAS   interface :  Fast vector & matrix operations
   LAPACKE interface :  Fast linear algebra routines
   SCALAPACK package :  Parallel linear algebra routines
   Shared memory     :  Shared parallel matrices
   BLAS/LAPACK       :  OpenBLAS 0.3.15  USE64BITINT DYNAMIC_ARCH NO_AFFINITY Haswell SINGLE_THREADED
        Core in use  :  Haswell
   Copyright (c) 2011-2014, The OpenBLAS Project




***************************************
The coordinates will be read from file: al2me6.xyz
***************************************


Your calculation utilizes the geometrical counterpoise correction gCP
Please cite in your paper:
H.Kruse, S. Grimme J.Chem.Phys., 136, (2012), 154101 
   

Your calculation utilizes the atom-pairwise dispersion correction
with the Becke-Johnson damping scheme (D3BJ)
Cite in your paper:
S.Grimme, S.Ehrlich, L.Goerigk, J Comput Chem, (2011), 32, 1456–1465 
S.Grimme, J.Antony, S.Ehrlich and H.Krieg, J.Chem.Phys., 132, (2010), 154104 
   

Your calculation employs the composite approach PBEh-3c.
Please cite in your paper:
S. Grimme, J. G. Brandenburg, C. Bannwarth, A. Hansen J.Chem.Phys., 143, (2015), 054107 
   

================================================================================

----- Orbital basis set information -----
Your calculation utilizes the basis: def2-mSVP

----- AuxJ basis set information -----
Your calculation utilizes the auxiliary basis: def2/J
   F. Weigend, Phys. Chem. Chem. Phys. 8, 1057 (2006).

================================================================================
                                        WARNINGS
                       Please study these warnings very carefully!
================================================================================


INFO   : the flag for use of the SHARK integral package has been found!

================================================================================
                                       INPUT FILE
================================================================================
NAME = pbeh-3c.inp
|  1> ! PBEh-3c def2/J TightSCF DefGrid3
|  2> 
|  3> %maxcore 60000
|  4> 
|  5> %pal
|  6> nprocs 4
|  7> end
|  8> 
|  9> *xyzfile 0 1 al2me6.xyz
| 10> 
| 11>                          ****END OF INPUT****
================================================================================

                       ****************************
                       * Single Point Calculation *
                       ****************************

---------------------------------
CARTESIAN COORDINATES (ANGSTROEM)
---------------------------------
  C      0.000000    2.412333   -1.620845
  Al     0.000000    1.307566    0.009443
  C      0.000000    2.058525    1.833234
  C     -1.692308    0.000000   -0.222996
  Al     0.000000   -1.307566    0.009443
  C      0.000000   -2.412333   -1.620845
  C      1.692308    0.000000   -0.222996
  C      0.000000   -2.058525    1.833234
  H      0.876499   -2.688480    2.007086
  H      0.000000   -1.288088    2.607309
  H     -0.876499   -2.688480    2.007086
  H      0.877170   -3.062852   -1.664474
  H     -0.877170   -3.062852   -1.664474
  H      0.000000   -1.807463   -2.530428
  H      0.876499    2.688480    2.007086
  H     -0.876499    2.688480    2.007086
  H      0.000000    1.288088    2.607309
  H      0.877170    3.062852   -1.664474
  H      0.000000    1.807463   -2.530428
  H     -0.877170    3.062852   -1.664474
  H      1.984993    0.000000   -1.272980
  H      2.197903   -0.847825    0.256019
  H      2.197903    0.847825    0.256019
  H     -1.984993    0.000000   -1.272980
  H     -2.197903    0.847825    0.256019
  H     -2.197903   -0.847825    0.256019

----------------------------
CARTESIAN COORDINATES (A.U.)
----------------------------
  NO LB      ZA    FRAG     MASS         X           Y           Z
   0 C     6.0000    0    12.011    0.000000    4.558648   -3.062953
   1 Al   13.0000    0    26.982    0.000000    2.470941    0.017845
   2 C     6.0000    0    12.011    0.000000    3.890048    3.464310
   3 C     6.0000    0    12.011   -3.197998    0.000000   -0.421401
   4 Al   13.0000    0    26.982    0.000000   -2.470941    0.017845
   5 C     6.0000    0    12.011    0.000000   -4.558648   -3.062953
   6 C     6.0000    0    12.011    3.197998    0.000000   -0.421401
   7 C     6.0000    0    12.011    0.000000   -3.890048    3.464310
   8 H     1.0000    0     1.008    1.656343   -5.080491    3.792843
   9 H     1.0000    0     1.008    0.000000   -2.434133    4.927100
  10 H     1.0000    0     1.008   -1.656343   -5.080491    3.792843
  11 H     1.0000    0     1.008    1.657611   -5.787951   -3.145400
  12 H     1.0000    0     1.008   -1.657611   -5.787951   -3.145400
  13 H     1.0000    0     1.008    0.000000   -3.415610   -4.781815
  14 H     1.0000    0     1.008    1.656343    5.080491    3.792843
  15 H     1.0000    0     1.008   -1.656343    5.080491    3.792843
  16 H     1.0000    0     1.008    0.000000    2.434133    4.927100
  17 H     1.0000    0     1.008    1.657611    5.787951   -3.145400
  18 H     1.0000    0     1.008    0.000000    3.415610   -4.781815
  19 H     1.0000    0     1.008   -1.657611    5.787951   -3.145400
  20 H     1.0000    0     1.008    3.751093    0.000000   -2.405583
  21 H     1.0000    0     1.008    4.153434   -1.602157    0.483806
  22 H     1.0000    0     1.008    4.153434    1.602157    0.483806
  23 H     1.0000    0     1.008   -3.751093    0.000000   -2.405583
  24 H     1.0000    0     1.008   -4.153434    1.602157    0.483806
  25 H     1.0000    0     1.008   -4.153434   -1.602157    0.483806

--------------------------------
INTERNAL COORDINATES (ANGSTROEM)
--------------------------------
 C      0   0   0     0.000000000000     0.00000000     0.00000000
 Al     1   0   0     1.969352314905     0.00000000     0.00000000
 C      2   1   0     1.972346902004   123.49664679     0.00000000
 C      2   1   3     2.151200246366   104.56825599   125.62823214
 Al     4   2   1     2.151200246366    74.86564976   122.07282145
 C      5   4   2     1.969352314905   104.56825599   237.92717855
 C      2   1   3     2.151200246366   104.56825599   234.37176786
 C      5   4   2     1.972346902004   109.35015184   103.84986340
 H      8   5   4     1.093306002745   111.49498935   183.01018185
 H      8   5   4     1.092137938446   112.75518880   303.51098962
 H      8   5   4     1.093306002745   111.49498935    64.01179738
 H      6   5   4     1.092934349569   111.52725192   174.74315260
 H      6   5   4     1.092934349569   111.52725192   294.00038311
 H      6   5   4     1.092340902786   112.25262733    54.37176786
 H      3   2   1     1.093306002745   111.49498935   300.50080776
 H      3   2   1     1.093306002745   111.49498935    59.49919224
 H      3   2   1     1.092137938446   112.75518880   180.00000000
 H      1   2   3     1.092934349569   111.52725192    59.62861526
 H      1   2   3     1.092340902786   112.25262733   180.00000000
 H      1   2   3     1.092934349569   111.52725192   300.37138474
 H      7   2   1     1.090014082241   108.38002612   342.66167548
 H      7   2   1     1.097218589977   141.72079334   184.85591716
 H      7   2   1     1.097218589977    81.12118338    88.00789161
 H      4   2   1     1.090014082241   108.38002612    17.33832452
 H      4   2   1     1.097218589977    81.12118338   271.99210839
 H      4   2   1     1.097218589977   141.72079334   175.14408284

---------------------------
INTERNAL COORDINATES (A.U.)
---------------------------
 C      0   0   0     0.000000000000     0.00000000     0.00000000
 Al     1   0   0     3.721536536374     0.00000000     0.00000000
 C      2   1   0     3.727195485876   123.49664679     0.00000000
 C      2   1   3     4.065179324856   104.56825599   125.62823214
 Al     4   2   1     4.065179324856    74.86564976   122.07282145
 C      5   4   2     3.721536536374   104.56825599   237.92717855
 C      2   1   3     4.065179324856   104.56825599   234.37176786
 C      5   4   2     3.727195485876   109.35015184   103.84986340
 H      8   5   4     2.066048925761   111.49498935   183.01018185
 H      8   5   4     2.063841604129   112.75518880   303.51098962
 H      8   5   4     2.066048925761   111.49498935    64.01179738
 H      6   5   4     2.065346603041   111.52725192   174.74315260
 H      6   5   4     2.065346603041   111.52725192   294.00038311
 H      6   5   4     2.064225151145   112.25262733    54.37176786
 H      3   2   1     2.066048925761   111.49498935   300.50080776
 H      3   2   1     2.066048925761   111.49498935    59.49919224
 H      3   2   1     2.063841604129   112.75518880   180.00000000
 H      1   2   3     2.065346603041   111.52725192    59.62861526
 H      1   2   3     2.064225151145   112.25262733   180.00000000
 H      1   2   3     2.065346603041   111.52725192   300.37138474
 H      7   2   1     2.059828097553   108.38002612   342.66167548
 H      7   2   1     2.073442644104   141.72079334   184.85591716
 H      7   2   1     2.073442644104    81.12118338    88.00789161
 H      4   2   1     2.059828097553   108.38002612    17.33832452
 H      4   2   1     2.073442644104    81.12118338   271.99210839
 H      4   2   1     2.073442644104   141.72079334   175.14408284

---------------------
BASIS SET INFORMATION
---------------------
There are 3 groups of distinct atoms

 Group   1 Type C   : 8s4p1d contracted to 4s2p1d pattern {5111/31/1}
 Group   2 Type Al  : 10s7p1d contracted to 4s3p1d pattern {5311/511/1}
 Group   3 Type H   : 4s contracted to 2s pattern {31}

Atom   0C    basis set group =>   1
Atom   1Al   basis set group =>   2
Atom   2C    basis set group =>   1
Atom   3C    basis set group =>   1
Atom   4Al   basis set group =>   2
Atom   5C    basis set group =>   1
Atom   6C    basis set group =>   1
Atom   7C    basis set group =>   1
Atom   8H    basis set group =>   3
Atom   9H    basis set group =>   3
Atom  10H    basis set group =>   3
Atom  11H    basis set group =>   3
Atom  12H    basis set group =>   3
Atom  13H    basis set group =>   3
Atom  14H    basis set group =>   3
Atom  15H    basis set group =>   3
Atom  16H    basis set group =>   3
Atom  17H    basis set group =>   3
Atom  18H    basis set group =>   3
Atom  19H    basis set group =>   3
Atom  20H    basis set group =>   3
Atom  21H    basis set group =>   3
Atom  22H    basis set group =>   3
Atom  23H    basis set group =>   3
Atom  24H    basis set group =>   3
Atom  25H    basis set group =>   3
---------------------------------
AUXILIARY/J BASIS SET INFORMATION
---------------------------------
There are 3 groups of distinct atoms

 Group   1 Type C   : 12s5p4d2f1g contracted to 6s4p3d1f1g pattern {711111/2111/211/2/1}
 Group   2 Type Al  : 14s5p5d2f1g contracted to 8s4p3d1f1g pattern {71111111/2111/311/2/1}
 Group   3 Type H   : 5s2p1d contracted to 3s1p1d pattern {311/2/1}

Atom   0C    basis set group =>   1
Atom   1Al   basis set group =>   2
Atom   2C    basis set group =>   1
Atom   3C    basis set group =>   1
Atom   4Al   basis set group =>   2
Atom   5C    basis set group =>   1
Atom   6C    basis set group =>   1
Atom   7C    basis set group =>   1
Atom   8H    basis set group =>   3
Atom   9H    basis set group =>   3
Atom  10H    basis set group =>   3
Atom  11H    basis set group =>   3
Atom  12H    basis set group =>   3
Atom  13H    basis set group =>   3
Atom  14H    basis set group =>   3
Atom  15H    basis set group =>   3
Atom  16H    basis set group =>   3
Atom  17H    basis set group =>   3
Atom  18H    basis set group =>   3
Atom  19H    basis set group =>   3
Atom  20H    basis set group =>   3
Atom  21H    basis set group =>   3
Atom  22H    basis set group =>   3
Atom  23H    basis set group =>   3
Atom  24H    basis set group =>   3
Atom  25H    basis set group =>   3


           ************************************************************
           *        Program running with 4 parallel MPI-processes     *
           *              working on a common directory               *
           ************************************************************
------------------------------------------------------------------------------
                           ORCA GTO INTEGRAL CALCULATION
                           -- RI-GTO INTEGRALS CHOSEN --
------------------------------------------------------------------------------
------------------------------------------------------------------------------
                   ___                                                        
                  /   \      - P O W E R E D   B Y -                         
                 /     \                                                     
                 |  |  |   _    _      __       _____    __    __             
                 |  |  |  | |  | |    /  \     |  _  \  |  |  /  |          
                  \  \/   | |  | |   /    \    | | | |  |  | /  /          
                 / \  \   | |__| |  /  /\  \   | |_| |  |  |/  /          
                |  |  |   |  __  | /  /__\  \  |    /   |      \           
                |  |  |   | |  | | |   __   |  |    \   |  |\   \          
                \     /   | |  | | |  |  |  |  | |\  \  |  | \   \       
                 \___/    |_|  |_| |__|  |__|  |_| \__\ |__|  \__/        
                                                                              
                      - O R C A' S   B I G   F R I E N D -                    
                                      &                                       
                       - I N T E G R A L  F E E D E R -                       
                                                                              
 v1 FN, 2020, v2 2021                                                         
------------------------------------------------------------------------------


Reading SHARK input file pbeh-3c.SHARKINP.tmp ... ok
----------------------
SHARK INTEGRAL PACKAGE
----------------------

Number of atoms                             ...     26
Number of basis functions                   ...    162
Number of shells                            ...     94
Maximum angular momentum                    ...      2
Integral batch strategy                     ... SHARK/LIBINT Hybrid
RI-J (if used) integral strategy            ... SPLIT-RIJ (Revised 2003 algorithm where possible)
Printlevel                                  ...      1
Contraction scheme used                     ... SEGMENTED contraction
Coulomb Range Separation                    ... NOT USED
Exchange Range Separation                   ... NOT USED
Finite Nucleus Model                        ... NOT USED
Auxiliary Coulomb fitting basis             ... AVAILABLE
   # of basis functions in Aux-J            ...    594
   # of shells in Aux-J                     ...    214
   Maximum angular momentum in Aux-J        ...      4
Auxiliary J/K fitting basis                 ... NOT available
Auxiliary Correlation fitting basis         ... NOT available
Auxiliary 'external' fitting basis          ... NOT available
Integral threshold                          ...     2.500000e-11
Primitive cut-off                           ...     2.500000e-12
Primitive pair pre-selection threshold      ...     2.500000e-12

Calculating pre-screening integrals         ... done (  0.1 sec) Dimension = 94
Organizing shell pair data                  ... done (  0.1 sec)
Shell pair information
Total number of shell pairs                 ...      4465
Shell pairs after pre-screening             ...      4016
Total number of primitive shell pairs       ...     17569
Primitive shell pairs kept                  ...     10479
          la=0 lb=0:   2017 shell pairs
          la=1 lb=0:   1166 shell pairs
          la=1 lb=1:    169 shell pairs
          la=2 lb=0:    490 shell pairs
          la=2 lb=1:    140 shell pairs
          la=2 lb=2:     34 shell pairs

Calculating one electron integrals          ... done (  0.0 sec)
Calculating RI/J V-Matrix + Cholesky decomp.... done (  0.1 sec)
Calculating Nuclear repulsion               ... done (  0.0 sec) ENN=    541.647679857752 Eh

SHARK setup successfully completed in   0.7 seconds

Maximum memory used throughout the entire GTOINT-calculation: 12.6 MB


           ************************************************************
           *        Program running with 4 parallel MPI-processes     *
           *              working on a common directory               *
           ************************************************************
-------------------------------------------------------------------------------
                                 ORCA SCF
-------------------------------------------------------------------------------

------------
SCF SETTINGS
------------
Hamiltonian:
 Density Functional     Method          .... DFT(GTOs)
 Exchange Functional    Exchange        .... PBE
   PBE kappa parameter   XKappa         ....  1.024500
   PBE mue parameter    XMuePBE         ....  0.123457
 Correlation Functional Correlation     .... PBE
   PBE beta parameter  CBetaPBE         ....  0.030000
 LDA part of GGA corr.  LDAOpt          .... PW91-LDA
 Gradients option       PostSCFGGA      .... off
 Hybrid DFT is turned on
   Fraction HF Exchange ScalHFX         ....  0.420000
   Scaling of DF-GGA-X  ScalDFX         ....  0.580000
   Scaling of DF-GGA-C  ScalDFC         ....  1.000000
   Scaling of DF-LDA-C  ScalLDAC        ....  1.000000
   Perturbative correction              ....  0.000000
   Density functional embedding theory  .... OFF
 RI-approximation to the Coulomb term is turned on
   Number of AuxJ basis functions       .... 594
   RIJ-ON(X) (HFX calculated with O(N)) .... on
   Number of AuxJ basis functions       .... 594
   RIJ-COSX (HFX calculated with COS-X)).... on


General Settings:
 Integral files         IntName         .... pbeh-3c
 Hartree-Fock type      HFTyp           .... RHF
 Total Charge           Charge          ....    0
 Multiplicity           Mult            ....    1
 Number of Electrons    NEL             ....   80
 Basis Dimension        Dim             ....  162
 Nuclear Repulsion      ENuc            ....    541.6476798578 Eh

Convergence Acceleration:
 DIIS                   CNVDIIS         .... on
   Start iteration      DIISMaxIt       ....    12
   Startup error        DIISStart       ....  0.200000
   # of expansion vecs  DIISMaxEq       ....     5
   Bias factor          DIISBfac        ....   1.050
   Max. coefficient     DIISMaxC        ....  10.000
 Trust-Rad. Augm. Hess. CNVTRAH         .... auto
   Auto Start mean grad. ratio tolernc. ....  1.125000
   Auto Start start iteration           ....    20
   Auto Start num. interpolation iter.  ....    10
   Max. Number of Micro iterations      ....    16
   Max. Number of Macro iterations      .... Maxiter - #DIIS iter
   Number of Davidson start vectors     ....     2
   Converg. threshold I  (grad. norm)   ....   1.000e-05
   Converg. threshold II (energy diff.) ....   1.000e-08
   Grad. Scal. Fac. for Micro threshold ....   0.100
   Minimum threshold for Micro iter.    ....   0.010
   NR start threshold (gradient norm)   ....   0.001
   Initial trust radius                 ....   0.400
   Minimum AH scaling param. (alpha)    ....   1.000
   Maximum AH scaling param. (alpha)    .... 1000.000
   Orbital update algorithm             .... Taylor
   White noise on init. David. guess    .... on
   Maximum white noise                  ....   0.010
   Quad. conv. algorithm                .... NR
   COSX micro iterations for RIJONX calc.... off
 SOSCF                  CNVSOSCF        .... on
   Start iteration      SOSCFMaxIt      ....   150
   Startup grad/error   SOSCFStart      ....  0.003300
 Level Shifting         CNVShift        .... on
   Level shift para.    LevelShift      ....    0.2500
   Turn off err/grad.   ShiftErr        ....    0.0010
 Zerner damping         CNVZerner       .... off
 Static damping         CNVDamp         .... on
   Fraction old density DampFac         ....    0.7000
   Max. Damping (<1)    DampMax         ....    0.9800
   Min. Damping (>=0)   DampMin         ....    0.0000
   Turn off err/grad.   DampErr         ....    0.1000
 Fernandez-Rico         CNVRico         .... off

SCF Procedure:
 Maximum # iterations   MaxIter         ....   125
 SCF integral mode      SCFMode         .... Direct
   Integral package                     .... SHARK and LIBINT hybrid scheme
 Reset frequency        DirectResetFreq ....    20
 Integral Threshold     Thresh          ....  2.500e-11 Eh
 Primitive CutOff       TCut            ....  2.500e-12 Eh

Convergence Tolerance:
 Convergence Check Mode ConvCheckMode   .... Total+1el-Energy
 Convergence forced     ConvForced      .... 0
 Energy Change          TolE            ....  1.000e-08 Eh
 1-El. energy change                    ....  1.000e-05 Eh
 Orbital Gradient       TolG            ....  1.000e-05
 Orbital Rotation angle TolX            ....  1.000e-05
 DIIS Error             TolErr          ....  5.000e-07


Diagonalization of the overlap matrix:
Smallest eigenvalue                        ... 1.791e-03
Time for diagonalization                   ...    0.008 sec
Threshold for overlap eigenvalues          ... 1.000e-08
Number of eigenvalues below threshold      ... 0
Time for construction of square roots      ...    0.179 sec
Total time needed                          ...    0.188 sec

--------------------------------
INITIAL GUESS: MINIMAL BASIS EHT
--------------------------------
The minimal basis has 66 functions
EHT matrix was diagonalized
Basis set overlap was calculated now projecting the orbitals
Using GuessMode=FMatrix for the initial guess
C*T matrix was formed
Effective Fockian was calculated
Effective Fockian was diagonalized
Initial density was built
                      ------------------
                      INITIAL GUESS DONE
                      ------------------
-------------------
DFT GRID GENERATION
-------------------

General Integration Accuracy     IntAcc      ... 4.959
Radial Grid Type                 RadialGrid  ... OptM3 with GC (2021)
Angular Grid (max. ang.)         AngularGrid ... 6 (Lebedev-590)
Angular grid pruning method      GridPruning ... 4 (adaptive)
Weight generation scheme         WeightScheme... Becke
Basis function cutoff            BFCut       ... 1.0000e-11
Integration weight cutoff        WCut        ... 1.0000e-14
Angular grids for H and He will be reduced by one unit
Partially contracted basis set               ... off
Rotationally invariant grid construction     ... off

Total number of grid points                  ...   272054
Total number of batches                      ...     4263
Average number of points per batch           ...       63
Average number of grid points per atom       ...    10464
Time for grid setup =    4.397 sec

--------------------
COSX GRID GENERATION
--------------------

GRIDX 1
-------
General Integration Accuracy     IntAcc      ... 4.020
Radial Grid Type                 RadialGrid  ... OptM3 with GC (2021)
Angular Grid (max. ang.)         AngularGrid ... 2 (Lebedev-110)
Angular grid pruning method      GridPruning ... 4 (adaptive)
Weight generation scheme         WeightScheme... Becke
Basis function cutoff            BFCut       ... 1.0000e-11
Integration weight cutoff        WCut        ... 1.0000e-14
Angular grids for H and He will be reduced by one unit
Partially contracted basis set               ... on
Rotationally invariant grid construction     ... off

Total number of grid points                  ...    28008
Total number of batches                      ...      449
Average number of points per batch           ...       62
Average number of grid points per atom       ...     1077
UseSFitting                                  ... on

GRIDX 2
-------
General Integration Accuracy     IntAcc      ... 4.338
Radial Grid Type                 RadialGrid  ... OptM3 with GC (2021)
Angular Grid (max. ang.)         AngularGrid ... 3 (Lebedev-194)
Angular grid pruning method      GridPruning ... 4 (adaptive)
Weight generation scheme         WeightScheme... Becke
Basis function cutoff            BFCut       ... 1.0000e-11
Integration weight cutoff        WCut        ... 1.0000e-14
Angular grids for H and He will be reduced by one unit
Partially contracted basis set               ... on
Rotationally invariant grid construction     ... off

Total number of grid points                  ...    61658
Total number of batches                      ...      979
Average number of points per batch           ...       62
Average number of grid points per atom       ...     2371
UseSFitting                                  ... on

GRIDX 3
-------
General Integration Accuracy     IntAcc      ... 4.871
Radial Grid Type                 RadialGrid  ... OptM3 with GC (2021)
Angular Grid (max. ang.)         AngularGrid ... 4 (Lebedev-302)
Angular grid pruning method      GridPruning ... 4 (adaptive)
Weight generation scheme         WeightScheme... Becke
Basis function cutoff            BFCut       ... 1.0000e-11
Integration weight cutoff        WCut        ... 1.0000e-14
Angular grids for H and He will be reduced by one unit
Partially contracted basis set               ... on
Rotationally invariant grid construction     ... off

Total number of grid points                  ...   122662
Total number of batches                      ...     1929
Average number of points per batch           ...       63
Average number of grid points per atom       ...     4718
UseSFitting                                  ... on

Time for X-Grid setup             =    3.849 sec

--------------
SCF ITERATIONS
--------------
ITER       Energy         Delta-E        Max-DP      RMS-DP      [F,P]     Damp
               ***  Starting incremental Fock matrix formation  ***
  0   -722.0687280320   0.000000000000 0.11741410  0.00383031  0.3801986 0.7000
  1   -722.4344708131  -0.365742781051 0.08499667  0.00274676  0.2611844 0.7000
                               ***Turning on DIIS***
  2   -722.6772723760  -0.242801562948 0.05646576  0.00195453  0.1787205 0.7000
  3   -722.8436285216  -0.166356145572 0.05772799  0.00148515  0.1231345 0.7000
  4   -722.9603097945  -0.116681272917 0.16277124  0.00373270  0.0867636 0.0000
  5   -723.2363813056  -0.276071511055 0.00745163  0.00021730  0.0064084 0.0000
                      *** Initiating the SOSCF procedure ***
                           *** Shutting down DIIS ***
                      *** Re-Reading the Fockian *** 
                      *** Removing any level shift *** 
ITER      Energy       Delta-E        Grad      Rot      Max-DP    RMS-DP
  6   -723.23667020  -0.0002888991  0.000594  0.000594  0.003970  0.000082
               *** Restarting incremental Fock matrix formation ***
  7   -723.23671940  -0.0000491950  0.000309  0.000754  0.002581  0.000057
  8   -723.23672527  -0.0000058717  0.000078  0.000258  0.000491  0.000015
  9   -723.23672555  -0.0000002746  0.000043  0.000048  0.000109  0.000003
 10   -723.23672562  -0.0000000710  0.000003  0.000003  0.000020  0.000000
                  ***Gradient check signals convergence***
              ***Rediagonalizing the Fockian in SOSCF/NRSCF***

               *****************************************************
               *                     SUCCESS                       *
               *           SCF CONVERGED AFTER  11 CYCLES          *
               *****************************************************

Old exchange energy                            =    -31.009479056 Eh
New exchange energy                            =    -31.009480168 Eh
Exchange energy change after final integration =     -0.000001113 Eh
Total energy after final integration           =   -723.236726739 Eh
Final COS-X integration done in                =     8.055 sec

----------------
TOTAL SCF ENERGY
----------------

Total Energy       :         -723.23672674 Eh          -19680.27186 eV

Components:
Nuclear Repulsion  :          541.64767986 Eh           14738.98268 eV
Electronic Energy  :        -1264.88440660 Eh          -34419.25454 eV
One Electron Energy:        -2071.91854278 Eh          -56379.76984 eV
Two Electron Energy:          807.03413619 Eh           21960.51530 eV
Max COSX asymmetry :            0.00000295 Eh               0.00008 eV

Virial components:
Potential Energy   :        -1443.09026991 Eh          -39268.48262 eV
Kinetic Energy     :          719.85354317 Eh           19588.21076 eV
Virial Ratio       :            2.00469982


DFT components:
N(Alpha)           :       39.999978318441 electrons
N(Beta)            :       39.999978318441 electrons
N(Total)           :       79.999956636881 electrons
E(X)               :      -41.170826647903 Eh       
E(C)               :       -3.532061166196 Eh       
E(XC)              :      -44.702887814099 Eh       
DFET-embed. en.    :        0.000000000000 Eh       

---------------
SCF CONVERGENCE
---------------

  Last Energy change         ...   -9.7019e-09  Tolerance :   1.0000e-08
  Last MAX-Density change    ...    2.6645e-15  Tolerance :   1.0000e-07
  Last RMS-Density change    ...    5.2472e-17  Tolerance :   5.0000e-09
  Last Orbital Gradient      ...    1.1300e-06  Tolerance :   1.0000e-05
  Last Orbital Rotation      ...    9.8494e-07  Tolerance :   1.0000e-05

             **** THE GBW FILE WAS UPDATED (pbeh-3c.gbw) ****
             **** DENSITY pbeh-3c.scfp WAS UPDATED ****
             **** ENERGY FILE WAS UPDATED (pbeh-3c.en.tmp) ****
             **** THE GBW FILE WAS UPDATED (pbeh-3c.gbw) ****
             **** DENSITY pbeh-3c.scfp WAS UPDATED ****
----------------
ORBITAL ENERGIES
----------------

  NO   OCC          E(Eh)            E(eV) 
   0   2.0000     -56.587678     -1539.8290 
   1   2.0000     -56.587654     -1539.8284 
   2   2.0000     -10.435534      -283.9653 
   3   2.0000     -10.435504      -283.9645 
   4   2.0000     -10.395254      -282.8692 
   5   2.0000     -10.395236      -282.8687 
   6   2.0000     -10.393927      -282.8331 
   7   2.0000     -10.393907      -282.8326 
   8   2.0000      -4.321389      -117.5910 
   9   2.0000      -4.321336      -117.5895 
  10   2.0000      -2.813377       -76.5559 
  11   2.0000      -2.813279       -76.5532 
  12   2.0000      -2.810893       -76.4883 
  13   2.0000      -2.810262       -76.4711 
  14   2.0000      -2.807061       -76.3840 
  15   2.0000      -2.807009       -76.3826 
  16   2.0000      -0.804288       -21.8858 
  17   2.0000      -0.787953       -21.4413 
  18   2.0000      -0.747263       -20.3341 
  19   2.0000      -0.742895       -20.2152 
  20   2.0000      -0.739985       -20.1360 
  21   2.0000      -0.737891       -20.0790 
  22   2.0000      -0.502094       -13.6627 
  23   2.0000      -0.493688       -13.4339 
  24   2.0000      -0.483182       -13.1481 
  25   2.0000      -0.475473       -12.9383 
  26   2.0000      -0.474030       -12.8990 
  27   2.0000      -0.440263       -11.9802 
  28   2.0000      -0.435447       -11.8491 
  29   2.0000      -0.433524       -11.7968 
  30   2.0000      -0.428882       -11.6705 
  31   2.0000      -0.427495       -11.6327 
  32   2.0000      -0.425475       -11.5778 
  33   2.0000      -0.424877       -11.5615 
  34   2.0000      -0.421655       -11.4738 
  35   2.0000      -0.357890        -9.7387 
  36   2.0000      -0.335098        -9.1185 
  37   2.0000      -0.333047        -9.0627 
  38   2.0000      -0.308990        -8.4080 
  39   2.0000      -0.307679        -8.3724 
  40   0.0000       0.064863         1.7650 
  41   0.0000       0.071768         1.9529 
  42   0.0000       0.083676         2.2769 
  43   0.0000       0.088105         2.3975 
  44   0.0000       0.111763         3.0412 
  45   0.0000       0.113165         3.0794 
  46   0.0000       0.119312         3.2466 
  47   0.0000       0.129996         3.5374 
  48   0.0000       0.155445         4.2299 
  49   0.0000       0.159714         4.3460 
  50   0.0000       0.165490         4.5032 
  51   0.0000       0.174011         4.7351 
  52   0.0000       0.177196         4.8218 
  53   0.0000       0.200722         5.4619 
  54   0.0000       0.202112         5.4997 
  55   0.0000       0.203979         5.5506 
  56   0.0000       0.224097         6.0980 
  57   0.0000       0.231081         6.2880 
  58   0.0000       0.243592         6.6285 
  59   0.0000       0.252105         6.8601 
  60   0.0000       0.260301         7.0832 
  61   0.0000       0.277693         7.5564 
  62   0.0000       0.306870         8.3504 
  63   0.0000       0.321763         8.7556 
  64   0.0000       0.323048         8.7906 
  65   0.0000       0.343888         9.3577 
  66   0.0000       0.351043         9.5524 
  67   0.0000       0.418584        11.3903 
  68   0.0000       0.426057        11.5936 
  69   0.0000       0.427718        11.6388 
  70   0.0000       0.443227        12.0608 
  71   0.0000       0.453596        12.3430 
  72   0.0000       0.461781        12.5657 
  73   0.0000       0.482365        13.1258 
  74   0.0000       0.504279        13.7221 
  75   0.0000       0.514103        13.9895 
  76   0.0000       0.520457        14.1624 
  77   0.0000       0.531434        14.4611 
  78   0.0000       0.542773        14.7696 
  79   0.0000       0.553850        15.0710 
  80   0.0000       0.561899        15.2900 
  81   0.0000       0.570552        15.5255 
  82   0.0000       0.608473        16.5574 
  83   0.0000       0.645898        17.5758 
  84   0.0000       0.665760        18.1162 
  85   0.0000       0.665855        18.1188 
  86   0.0000       0.673377        18.3235 
  87   0.0000       0.685535        18.6544 
  88   0.0000       0.689112        18.7517 
  89   0.0000       0.698269        19.0009 
  90   0.0000       0.698469        19.0063 
  91   0.0000       0.729587        19.8531 
  92   0.0000       0.754795        20.5390 
  93   0.0000       0.787390        21.4260 
  94   0.0000       0.805984        21.9319 
  95   0.0000       0.811042        22.0696 
  96   0.0000       0.813709        22.1422 
  97   0.0000       0.854575        23.2542 
  98   0.0000       0.858063        23.3491 
  99   0.0000       0.916771        24.9466 
 100   0.0000       0.924771        25.1643 
 101   0.0000       0.946130        25.7455 
 102   0.0000       1.011807        27.5327 
 103   0.0000       1.035852        28.1870 
 104   0.0000       1.040299        28.3080 
 105   0.0000       1.052612        28.6430 
 106   0.0000       1.053131        28.6572 
 107   0.0000       1.058218        28.7956 
 108   0.0000       1.065937        29.0056 
 109   0.0000       1.067620        29.0514 
 110   0.0000       1.071905        29.1680 
 111   0.0000       1.103212        30.0199 
 112   0.0000       1.115474        30.3536 
 113   0.0000       1.121547        30.5189 
 114   0.0000       1.131338        30.7853 
 115   0.0000       1.143703        31.1217 
 116   0.0000       1.150210        31.2988 
 117   0.0000       1.150991        31.3201 
 118   0.0000       1.154578        31.4177 
 119   0.0000       1.230652        33.4877 
 120   0.0000       1.335373        36.3373 
 121   0.0000       1.356130        36.9022 
 122   0.0000       1.359982        37.0070 
 123   0.0000       1.367550        37.2129 
 124   0.0000       1.476132        40.1676 
 125   0.0000       1.492035        40.6003 
 126   0.0000       1.737837        47.2890 
 127   0.0000       1.755437        47.7679 
 128   0.0000       1.814110        49.3644 
 129   0.0000       1.819722        49.5172 
 130   0.0000       1.825363        49.6707 
 131   0.0000       1.832621        49.8681 
 132   0.0000       1.851758        50.3889 
 133   0.0000       1.861051        50.6418 
 134   0.0000       1.888577        51.3908 
 135   0.0000       1.889982        51.4290 
 136   0.0000       1.939486        52.7761 
 137   0.0000       1.994912        54.2843 
 138   0.0000       2.004884        54.5557 
 139   0.0000       2.006987        54.6129 
 140   0.0000       2.170134        59.0523 
 141   0.0000       2.222938        60.4892 
 142   0.0000       2.227665        60.6179 
 143   0.0000       2.243488        61.0484 
 144   0.0000       2.353004        64.0285 
 145   0.0000       2.354577        64.0713 
 146   0.0000       2.363135        64.3042 
 147   0.0000       2.372315        64.5540 
 148   0.0000       2.375975        64.6536 
 149   0.0000       2.377371        64.6915 
 150   0.0000       2.392467        65.1023 
 151   0.0000       2.392651        65.1073 
 152   0.0000       2.393418        65.1282 
 153   0.0000       2.399419        65.2915 
 154   0.0000       2.402308        65.3701 
 155   0.0000       2.407552        65.5128 
 156   0.0000      13.708771       373.0346 
 157   0.0000      13.731765       373.6603 
 158   0.0000      13.740203       373.8899 
 159   0.0000      13.748404       374.1131 
 160   0.0000      13.792853       375.3226 
 161   0.0000      13.817346       375.9891 

                    ********************************
                    * MULLIKEN POPULATION ANALYSIS *
                    ********************************

-----------------------
MULLIKEN ATOMIC CHARGES
-----------------------
   0 C :   -1.034808
   1 Al:    1.014452
   2 C :   -1.044974
   3 C :   -1.179171
   4 Al:    1.014450
   5 C :   -1.034807
   6 C :   -1.179171
   7 C :   -1.044974
   8 H :    0.229434
   9 H :    0.233104
  10 H :    0.229434
  11 H :    0.231431
  12 H :    0.231431
  13 H :    0.227633
  14 H :    0.229434
  15 H :    0.229434
  16 H :    0.233104
  17 H :    0.231431
  18 H :    0.227633
  19 H :    0.231430
  20 H :    0.290961
  21 H :    0.285537
  22 H :    0.285537
  23 H :    0.290961
  24 H :    0.285537
  25 H :    0.285537
Sum of atomic charges:   -0.0000000

--------------------------------
MULLIKEN REDUCED ORBITAL CHARGES
--------------------------------
  0 C s       :     3.439292  s :     3.439292
      pz      :     1.262085  p :     3.572798
      px      :     1.116741
      py      :     1.193972
      dz2     :     0.006242  d :     0.022717
      dxz     :     0.000104
      dyz     :     0.004714
      dx2y2   :     0.001336
      dxy     :     0.010321
  1 Als       :     4.766736  s :     4.766736
      pz      :     2.444385  p :     6.998585
      px      :     2.246135
      py      :     2.308066
      dz2     :     0.066764  d :     0.220227
      dxz     :     0.016231
      dyz     :     0.050740
      dx2y2   :     0.025830
      dxy     :     0.060662
  2 C s       :     3.440036  s :     3.440036
      pz      :     1.302518  p :     3.582187
      px      :     1.117569
      py      :     1.162100
      dz2     :     0.003852  d :     0.022751
      dxz     :     0.000880
      dyz     :     0.006107
      dx2y2   :     0.002297
      dxy     :     0.009615
  3 C s       :     3.495351  s :     3.495351
      pz      :     1.169756  p :     3.660151
      px      :     1.343627
      py      :     1.146768
      dz2     :     0.006569  d :     0.023669
      dxz     :     0.004319
      dyz     :     0.005649
      dx2y2   :     0.001986
      dxy     :     0.005145
  4 Als       :     4.766732  s :     4.766732
      pz      :     2.444386  p :     6.998590
      px      :     2.246135
      py      :     2.308069
      dz2     :     0.066764  d :     0.220227
      dxz     :     0.016231
      dyz     :     0.050740
      dx2y2   :     0.025830
      dxy     :     0.060662
  5 C s       :     3.439292  s :     3.439292
      pz      :     1.262085  p :     3.572798
      px      :     1.116741
      py      :     1.193972
      dz2     :     0.006242  d :     0.022717
      dxz     :     0.000104
      dyz     :     0.004714
      dx2y2   :     0.001336
      dxy     :     0.010321
  6 C s       :     3.495351  s :     3.495351
      pz      :     1.169756  p :     3.660151
      px      :     1.343627
      py      :     1.146768
      dz2     :     0.006569  d :     0.023669
      dxz     :     0.004319
      dyz     :     0.005649
      dx2y2   :     0.001986
      dxy     :     0.005145
  7 C s       :     3.440036  s :     3.440036
      pz      :     1.302518  p :     3.582186
      px      :     1.117569
      py      :     1.162100
      dz2     :     0.003852  d :     0.022751
      dxz     :     0.000880
      dyz     :     0.006107
      dx2y2   :     0.002297
      dxy     :     0.009615
  8 H s       :     0.770566  s :     0.770566
  9 H s       :     0.766896  s :     0.766896
 10 H s       :     0.770566  s :     0.770566
 11 H s       :     0.768569  s :     0.768569
 12 H s       :     0.768569  s :     0.768569
 13 H s       :     0.772367  s :     0.772367
 14 H s       :     0.770566  s :     0.770566
 15 H s       :     0.770566  s :     0.770566
 16 H s       :     0.766896  s :     0.766896
 17 H s       :     0.768569  s :     0.768569
 18 H s       :     0.772367  s :     0.772367
 19 H s       :     0.768570  s :     0.768570
 20 H s       :     0.709039  s :     0.709039
 21 H s       :     0.714463  s :     0.714463
 22 H s       :     0.714463  s :     0.714463
 23 H s       :     0.709039  s :     0.709039
 24 H s       :     0.714463  s :     0.714463
 25 H s       :     0.714463  s :     0.714463


                     *******************************
                     * LOEWDIN POPULATION ANALYSIS *
                     *******************************

----------------------
LOEWDIN ATOMIC CHARGES
----------------------
   0 C :   -0.628983
   1 Al:    0.449801
   2 C :   -0.632871
   3 C :   -0.588033
   4 Al:    0.449801
   5 C :   -0.628983
   6 C :   -0.588033
   7 C :   -0.632871
   8 H :    0.142875
   9 H :    0.142976
  10 H :    0.142875
  11 H :    0.144346
  12 H :    0.144346
  13 H :    0.141856
  14 H :    0.142875
  15 H :    0.142875
  16 H :    0.142976
  17 H :    0.144346
  18 H :    0.141856
  19 H :    0.144346
  20 H :    0.169866
  21 H :    0.185474
  22 H :    0.185474
  23 H :    0.169866
  24 H :    0.185474
  25 H :    0.185474

-------------------------------
LOEWDIN REDUCED ORBITAL CHARGES
-------------------------------
  0 C s       :     3.005316  s :     3.005316
      pz      :     1.267173  p :     3.585775
      px      :     1.126372
      py      :     1.192231
      dz2     :     0.010419  d :     0.037892
      dxz     :     0.000192
      dyz     :     0.008350
      dx2y2   :     0.002289
      dxy     :     0.016643
  1 Als       :     4.657379  s :     4.657379
      pz      :     2.626114  p :     7.478194
      px      :     2.364286
      py      :     2.487794
      dz2     :     0.122454  d :     0.414627
      dxz     :     0.031443
      dyz     :     0.095727
      dx2y2   :     0.045756
      dxy     :     0.119248
  2 C s       :     3.005108  s :     3.005108
      pz      :     1.307511  p :     3.589800
      px      :     1.126249
      py      :     1.156040
      dz2     :     0.006910  d :     0.037963
      dxz     :     0.001451
      dyz     :     0.010279
      dx2y2   :     0.003798
      dxy     :     0.015525
  3 C s       :     2.997441  s :     2.997441
      pz      :     1.140407  p :     3.552038
      px      :     1.299714
      py      :     1.111917
      dz2     :     0.010899  d :     0.038554
      dxz     :     0.006610
      dyz     :     0.008590
      dx2y2   :     0.003037
      dxy     :     0.009419
  4 Als       :     4.657379  s :     4.657379
      pz      :     2.626114  p :     7.478194
      px      :     2.364286
      py      :     2.487794
      dz2     :     0.122454  d :     0.414627
      dxz     :     0.031443
      dyz     :     0.095727
      dx2y2   :     0.045755
      dxy     :     0.119248
  5 C s       :     3.005316  s :     3.005316
      pz      :     1.267173  p :     3.585775
      px      :     1.126372
      py      :     1.192231
      dz2     :     0.010419  d :     0.037892
      dxz     :     0.000192
      dyz     :     0.008350
      dx2y2   :     0.002289
      dxy     :     0.016643
  6 C s       :     2.997441  s :     2.997441
      pz      :     1.140407  p :     3.552038
      px      :     1.299714
      py      :     1.111917
      dz2     :     0.010899  d :     0.038554
      dxz     :     0.006610
      dyz     :     0.008590
      dx2y2   :     0.003037
      dxy     :     0.009419
  7 C s       :     3.005108  s :     3.005108
      pz      :     1.307511  p :     3.589800
      px      :     1.126249
      py      :     1.156040
      dz2     :     0.006910  d :     0.037963
      dxz     :     0.001451
      dyz     :     0.010279
      dx2y2   :     0.003798
      dxy     :     0.015525
  8 H s       :     0.857125  s :     0.857125
  9 H s       :     0.857024  s :     0.857024
 10 H s       :     0.857125  s :     0.857125
 11 H s       :     0.855654  s :     0.855654
 12 H s       :     0.855654  s :     0.855654
 13 H s       :     0.858144  s :     0.858144
 14 H s       :     0.857125  s :     0.857125
 15 H s       :     0.857125  s :     0.857125
 16 H s       :     0.857024  s :     0.857024
 17 H s       :     0.855654  s :     0.855654
 18 H s       :     0.858144  s :     0.858144
 19 H s       :     0.855654  s :     0.855654
 20 H s       :     0.830134  s :     0.830134
 21 H s       :     0.814526  s :     0.814526
 22 H s       :     0.814526  s :     0.814526
 23 H s       :     0.830134  s :     0.830134
 24 H s       :     0.814526  s :     0.814526
 25 H s       :     0.814526  s :     0.814526


                      *****************************
                      * MAYER POPULATION ANALYSIS *
                      *****************************

  NA   - Mulliken gross atomic population
  ZA   - Total nuclear charge
  QA   - Mulliken gross atomic charge
  VA   - Mayer's total valence
  BVA  - Mayer's bonded valence
  FA   - Mayer's free valence

  ATOM       NA         ZA         QA         VA         BVA        FA
  0 C      7.0348     6.0000    -1.0348     3.6308     3.6308     0.0000
  1 Al    11.9855    13.0000     1.0145     2.9690     2.9690    -0.0000
  2 C      7.0450     6.0000    -1.0450     3.6262     3.6262    -0.0000
  3 C      7.1792     6.0000    -1.1792     3.5324     3.5324     0.0000
  4 Al    11.9855    13.0000     1.0145     2.9690     2.9690    -0.0000
  5 C      7.0348     6.0000    -1.0348     3.6308     3.6308    -0.0000
  6 C      7.1792     6.0000    -1.1792     3.5324     3.5324    -0.0000
  7 C      7.0450     6.0000    -1.0450     3.6262     3.6262    -0.0000
  8 H      0.7706     1.0000     0.2294     0.9082     0.9082    -0.0000
  9 H      0.7669     1.0000     0.2331     0.9070     0.9070    -0.0000
 10 H      0.7706     1.0000     0.2294     0.9082     0.9082     0.0000
 11 H      0.7686     1.0000     0.2314     0.9077     0.9077    -0.0000
 12 H      0.7686     1.0000     0.2314     0.9077     0.9077     0.0000
 13 H      0.7724     1.0000     0.2276     0.9078     0.9078     0.0000
 14 H      0.7706     1.0000     0.2294     0.9082     0.9082    -0.0000
 15 H      0.7706     1.0000     0.2294     0.9082     0.9082     0.0000
 16 H      0.7669     1.0000     0.2331     0.9070     0.9070    -0.0000
 17 H      0.7686     1.0000     0.2314     0.9077     0.9077     0.0000
 18 H      0.7724     1.0000     0.2276     0.9078     0.9078    -0.0000
 19 H      0.7686     1.0000     0.2314     0.9077     0.9077     0.0000
 20 H      0.7090     1.0000     0.2910     0.8770     0.8770    -0.0000
 21 H      0.7145     1.0000     0.2855     0.8811     0.8811     0.0000
 22 H      0.7145     1.0000     0.2855     0.8811     0.8811    -0.0000
 23 H      0.7090     1.0000     0.2910     0.8770     0.8770    -0.0000
 24 H      0.7145     1.0000     0.2855     0.8811     0.8811    -0.0000
 25 H      0.7145     1.0000     0.2855     0.8811     0.8811    -0.0000

  Mayer bond orders larger than 0.100000
B(  0-C ,  1-Al) :   0.8742 B(  0-C , 17-H ) :   0.9071 B(  0-C , 18-H ) :   0.9069 
B(  0-C , 19-H ) :   0.9071 B(  1-Al,  2-C ) :   0.8670 B(  1-Al,  3-C ) :   0.4586 
B(  1-Al,  4-Al) :   0.1261 B(  1-Al,  6-C ) :   0.4586 B(  2-C , 14-H ) :   0.9079 
B(  2-C , 15-H ) :   0.9079 B(  2-C , 16-H ) :   0.9070 B(  3-C ,  4-Al) :   0.4586 
B(  3-C , 23-H ) :   0.8783 B(  3-C , 24-H ) :   0.8483 B(  3-C , 25-H ) :   0.8483 
B(  4-Al,  5-C ) :   0.8742 B(  4-Al,  6-C ) :   0.4586 B(  4-Al,  7-C ) :   0.8670 
B(  5-C , 11-H ) :   0.9071 B(  5-C , 12-H ) :   0.9071 B(  5-C , 13-H ) :   0.9069 
B(  6-C , 20-H ) :   0.8783 B(  6-C , 21-H ) :   0.8483 B(  6-C , 22-H ) :   0.8483 
B(  7-C ,  8-H ) :   0.9079 B(  7-C ,  9-H ) :   0.9070 B(  7-C , 10-H ) :   0.9079 


-------
TIMINGS
-------

Total SCF time: 0 days 0 hours 1 min 43 sec 

Total time                  ....     103.466 sec
Sum of individual times     ....      97.587 sec  ( 94.3%)

Fock matrix formation       ....      84.643 sec  ( 81.8%)
  Split-RI-J                ....       5.888 sec  (  7.0% of F)
  Chain of spheres X        ....      42.831 sec  ( 50.6% of F)
  XC integration            ....      23.190 sec  ( 27.4% of F)
    Basis function eval.    ....       4.117 sec  ( 17.8% of XC)
    Density eval.           ....       2.430 sec  ( 10.5% of XC)
    XC-Functional eval.     ....       1.699 sec  (  7.3% of XC)
    XC-Potential eval.      ....       1.315 sec  (  5.7% of XC)
Diagonalization             ....       0.819 sec  (  0.8%)
Density matrix formation    ....       0.084 sec  (  0.1%)
Population analysis         ....       0.680 sec  (  0.7%)
Initial guess               ....       0.020 sec  (  0.0%)
Orbital Transformation      ....       0.000 sec  (  0.0%)
Orbital Orthonormalization  ....       0.000 sec  (  0.0%)
DIIS solution               ....       2.738 sec  (  2.6%)
SOSCF solution              ....       0.355 sec  (  0.3%)
Grid generation             ....       8.246 sec  (  8.0%)

Maximum memory used throughout the entire SCF-calculation: 62.9 MB


-------------------------------------------------------------------------------
                          DFT DISPERSION CORRECTION                            
                                                                               
                              DFTD3 V3.1  Rev 1                                
                          USING Becke-Johnson damping                          
-------------------------------------------------------------------------------
The PBEh-3c composite method is recognized
Using three-body term ABC
Active option DFTDOPT                   ...         4   

molecular C6(AA) [au] = 6615.906908 


            DFT-D V3
 parameters
 s6 scaling factor         :     1.0000 
 a1 scaling factor         :     0.4860 
 s8 scaling factor         :     0.0000 
 a2 scaling factor         :     4.5000 
 Damping factor alpha9(ATM):    16.0000 
 ad hoc parameters k1-k3   :    16.0000     1.3333    -4.0000 

 Edisp/kcal,au: -8.375774232584  -0.013347644435 
 E6   /kcal   :  -8.491602590 
 E8   /kcal   :  -0.000000000 
 E6(ABC)      :   0.115828358 
 % E8         :   0.000000000 
 % E6(ABC)    :  -1.382897322 

-------------------------   ----------------
Dispersion correction           -0.013347644
-------------------------   ----------------

------------------   -----------------
gCP correction             0.022896483
------------------   -----------------

-------------------------   --------------------
FINAL SINGLE POINT ENERGY      -723.227177900303
-------------------------   --------------------


                            ***************************************
                            *     ORCA property calculations      *
                            ***************************************

                                    ---------------------
                                    Active property flags
                                    ---------------------
   (+) Dipole Moment


------------------------------------------------------------------------------
                       ORCA ELECTRIC PROPERTIES CALCULATION
------------------------------------------------------------------------------

Dipole Moment Calculation                       ... on
Quadrupole Moment Calculation                   ... off
Polarizability Calculation                      ... off
GBWName                                         ... pbeh-3c.gbw
Electron density                                ... pbeh-3c.scfp
The origin for moment calculation is the CENTER OF MASS  = ( 0.000000,  0.000000  0.003370)

-------------
DIPOLE MOMENT
-------------
                                X             Y             Z
Electronic contribution:     -0.00000      -0.00000      -0.02985
Nuclear contribution   :     -0.00000      -0.00000      -0.04179
                        -----------------------------------------
Total Dipole Moment    :     -0.00000      -0.00000      -0.07164
                        -----------------------------------------
Magnitude (a.u.)       :      0.07164
Magnitude (Debye)      :      0.18211



--------------------
Rotational spectrum 
--------------------
 
Rotational constants in cm-1:     0.055268     0.032666     0.027355 
Rotational constants in MHz :  1656.898712   979.295220   820.096115 

 Dipole components along the rotational axes: 
x,y,z [a.u.] :    -0.000000    -0.071644    -0.000000 
x,y,z [Debye]:    -0.000001    -0.182105    -0.000000 

 

Timings for individual modules:

Sum of individual times         ...      104.816 sec (=   1.747 min)
GTO integral calculation        ...        0.906 sec (=   0.015 min)   0.9 %
SCF iterations                  ...      103.910 sec (=   1.732 min)  99.1 %
                             ****ORCA TERMINATED NORMALLY****
TOTAL RUN TIME: 0 days 0 hours 1 minutes 56 seconds 572 msec
