
                                 *****************
                                 * O   R   C   A *
                                 *****************

                                            #,                                       
                                            ###                                      
                                            ####                                     
                                            #####                                    
                                            ######                                   
                                           ########,                                 
                                     ,,################,,,,,                         
                               ,,#################################,,                 
                          ,,##########################################,,             
                       ,#########################################, ''#####,          
                    ,#############################################,,   '####,        
                  ,##################################################,,,,####,       
                ,###########''''           ''''###############################       
              ,#####''   ,,,,##########,,,,          '''####'''          '####       
            ,##' ,,,,###########################,,,                        '##       
           ' ,,###''''                  '''############,,,                           
         ,,##''                                '''############,,,,        ,,,,,,###''
      ,#''                                            '''#######################'''  
     '                                                          ''''####''''         
             ,#######,   #######,   ,#######,      ##                                
            ,#'     '#,  ##    ##  ,#'     '#,    #''#        ######   ,####,        
            ##       ##  ##   ,#'  ##            #'  '#       #        #'  '#        
            ##       ##  #######   ##           ,######,      #####,   #    #        
            '#,     ,#'  ##    ##  '#,     ,#' ,#      #,         ##   #,  ,#        
             '#######'   ##     ##  '#######'  #'      '#     #####' # '####'        



                  #######################################################
                  #                        -***-                        #
                  #          Department of theory and spectroscopy      #
                  #    Directorship and core code : Frank Neese         #
                  #        Max Planck Institute fuer Kohlenforschung    #
                  #                Kaiser Wilhelm Platz 1               #
                  #                 D-45470 Muelheim/Ruhr               #
                  #                      Germany                        #
                  #                                                     #
                  #                  All rights reserved                #
                  #                        -***-                        #
                  #######################################################


                         Program Version 5.0.3 -  RELEASE  -


 With contributions from (in alphabetic order):
   Daniel Aravena         : Magnetic Suceptibility
   Michael Atanasov       : Ab Initio Ligand Field Theory (pilot matlab implementation)
   Alexander A. Auer      : GIAO ZORA, VPT2 properties, NMR spectrum
   Ute Becker             : Parallelization
   Giovanni Bistoni       : ED, misc. LED, open-shell LED, HFLD
   Martin Brehm           : Molecular dynamics
   Dmytro Bykov           : SCF Hessian
   Vijay G. Chilkuri      : MRCI spin determinant printing, contributions to CSF-ICE
   Dipayan Datta          : RHF DLPNO-CCSD density
   Achintya Kumar Dutta   : EOM-CC, STEOM-CC
   Dmitry Ganyushin       : Spin-Orbit,Spin-Spin,Magnetic field MRCI
   Miquel Garcia          : C-PCM and meta-GGA Hessian, CC/C-PCM, Gaussian charge scheme
   Yang Guo               : DLPNO-NEVPT2, F12-NEVPT2, CIM, IAO-localization
   Andreas Hansen         : Spin unrestricted coupled pair/coupled cluster methods
   Benjamin Helmich-Paris : MC-RPA, TRAH-SCF, COSX integrals
   Lee Huntington         : MR-EOM, pCC
   Robert Izsak           : Overlap fitted RIJCOSX, COSX-SCS-MP3, EOM
   Marcus Kettner         : VPT2
   Christian Kollmar      : KDIIS, OOCD, Brueckner-CCSD(T), CCSD density, CASPT2, CASPT2-K
   Simone Kossmann        : Meta GGA functionals, TD-DFT gradient, OOMP2, MP2 Hessian
   Martin Krupicka        : Initial AUTO-CI
   Lucas Lang             : DCDCAS
   Marvin Lechner         : AUTO-CI (C++ implementation), FIC-MRCC
   Dagmar Lenk            : GEPOL surface, SMD
   Dimitrios Liakos       : Extrapolation schemes; Compound Job, initial MDCI parallelization
   Dimitrios Manganas     : Further ROCIS development; embedding schemes
   Dimitrios Pantazis     : SARC Basis sets
   Anastasios Papadopoulos: AUTO-CI, single reference methods and gradients
   Taras Petrenko         : DFT Hessian,TD-DFT gradient, ASA, ECA, R-Raman, ABS, FL, XAS/XES, NRVS
   Peter Pinski           : DLPNO-MP2, DLPNO-MP2 Gradient
   Christoph Reimann      : Effective Core Potentials
   Marius Retegan         : Local ZFS, SOC
   Christoph Riplinger    : Optimizer, TS searches, QM/MM, DLPNO-CCSD(T), (RO)-DLPNO pert. Triples
   Tobias Risthaus        : Range-separated hybrids, TD-DFT gradient, RPA, STAB
   Michael Roemelt        : Original ROCIS implementation
   Masaaki Saitow         : Open-shell DLPNO-CCSD energy and density
   Barbara Sandhoefer     : DKH picture change effects
   Avijit Sen             : IP-ROCIS
   Kantharuban Sivalingam : CASSCF convergence, NEVPT2, FIC-MRCI
   Bernardo de Souza      : ESD, SOC TD-DFT
   Georgi Stoychev        : AutoAux, RI-MP2 NMR, DLPNO-MP2 response
   Willem Van den Heuvel  : Paramagnetic NMR
   Boris Wezisla          : Elementary symmetry handling
   Frank Wennmohs         : Technical directorship


 We gratefully acknowledge several colleagues who have allowed us to
 interface, adapt or use parts of their codes:
   Stefan Grimme, W. Hujo, H. Kruse, P. Pracht,  : VdW corrections, initial TS optimization,
                  C. Bannwarth, S. Ehlert          DFT functionals, gCP, sTDA/sTD-DF
   Ed Valeev, F. Pavosevic, A. Kumar             : LibInt (2-el integral package), F12 methods
   Garnet Chan, S. Sharma, J. Yang, R. Olivares  : DMRG
   Ulf Ekstrom                                   : XCFun DFT Library
   Mihaly Kallay                                 : mrcc  (arbitrary order and MRCC methods)
   Jiri Pittner, Ondrej Demel                    : Mk-CCSD
   Frank Weinhold                                : gennbo (NPA and NBO analysis)
   Christopher J. Cramer and Donald G. Truhlar   : smd solvation model
   Lars Goerigk                                  : TD-DFT with DH, B97 family of functionals
   V. Asgeirsson, H. Jonsson                     : NEB implementation
   FAccTs GmbH                                   : IRC, NEB, NEB-TS, DLPNO-Multilevel, CI-OPT
                                                   MM, QMMM, 2- and 3-layer-ONIOM, Crystal-QMMM,
                                                   LR-CPCM, SF, NACMEs, symmetry and pop. for TD-DFT,
                                                   nearIR, NL-DFT gradient (VV10), updates on ESD,
                                                   ML-optimized integration grids
   S Lehtola, MJT Oliveira, MAL Marques          : LibXC Library
   Liviu Ungur et al                             : ANISO software


 Your calculation uses the libint2 library for the computation of 2-el integrals
 For citations please refer to: http://libint.valeyev.net

 Your ORCA version has been built with support for libXC version: 5.1.0
 For citations please refer to: https://tddft.org/programs/libxc/

 This ORCA versions uses:
   CBLAS   interface :  Fast vector & matrix operations
   LAPACKE interface :  Fast linear algebra routines
   SCALAPACK package :  Parallel linear algebra routines
   Shared memory     :  Shared parallel matrices
   BLAS/LAPACK       :  OpenBLAS 0.3.15  USE64BITINT DYNAMIC_ARCH NO_AFFINITY Haswell SINGLE_THREADED
        Core in use  :  Haswell
   Copyright (c) 2011-2014, The OpenBLAS Project




***************************************
The coordinates will be read from file: P8.xyz
***************************************


Your calculation utilizes the geometrical counterpoise correction gCP
Please cite in your paper:
H.Kruse, S. Grimme J.Chem.Phys., 136, (2012), 154101 
   

Your calculation utilizes the atom-pairwise dispersion correction
with the Becke-Johnson damping scheme (D3BJ)
Cite in your paper:
S.Grimme, S.Ehrlich, L.Goerigk, J Comput Chem, (2011), 32, 1456–1465 
S.Grimme, J.Antony, S.Ehrlich and H.Krieg, J.Chem.Phys., 132, (2010), 154104 
   

Your calculation employs the composite approach PBEh-3c.
Please cite in your paper:
S. Grimme, J. G. Brandenburg, C. Bannwarth, A. Hansen J.Chem.Phys., 143, (2015), 054107 
   

================================================================================

----- Orbital basis set information -----
Your calculation utilizes the basis: def2-mSVP

----- AuxJ basis set information -----
Your calculation utilizes the auxiliary basis: def2/J
   F. Weigend, Phys. Chem. Chem. Phys. 8, 1057 (2006).

================================================================================
                                        WARNINGS
                       Please study these warnings very carefully!
================================================================================


INFO   : the flag for use of the SHARK integral package has been found!

================================================================================
                                       INPUT FILE
================================================================================
NAME = pbeh-3c.inp
|  1> ! PBEh-3c def2/J TightSCF DefGrid3
|  2> 
|  3> %maxcore 60000
|  4> 
|  5> %pal
|  6> nprocs 4
|  7> end
|  8> 
|  9> *xyzfile 0 1 P8.xyz
| 10> 
| 11>                          ****END OF INPUT****
================================================================================

                       ****************************
                       * Single Point Calculation *
                       ****************************

---------------------------------
CARTESIAN COORDINATES (ANGSTROEM)
---------------------------------
  C     -0.200127   -0.425647    0.000000
  C     -1.420598    0.073334   -0.749193
  C     -1.420598    0.073334    0.749193
  C      1.037934    0.374099    0.000000
  C      2.273992   -0.119141    0.000000
  H     -0.050279   -1.499881    0.000000
  H     -1.336539    1.024524   -1.260283
  H     -2.025343   -0.660142   -1.267201
  H     -2.025343   -0.660142    1.267201
  H     -1.336539    1.024524    1.260283
  H      0.900529    1.454419    0.000000
  H      2.461095   -1.187778    0.000000
  H      3.141817    0.528497    0.000000

----------------------------
CARTESIAN COORDINATES (A.U.)
----------------------------
  NO LB      ZA    FRAG     MASS         X           Y           Z
   0 C     6.0000    0    12.011   -0.378185   -0.804356    0.000000
   1 C     6.0000    0    12.011   -2.684541    0.138582   -1.415769
   2 C     6.0000    0    12.011   -2.684541    0.138582    1.415769
   3 C     6.0000    0    12.011    1.961412    0.706945    0.000000
   4 C     6.0000    0    12.011    4.297223   -0.225143    0.000000
   5 H     1.0000    0     1.008   -0.095013   -2.834365    0.000000
   6 H     1.0000    0     1.008   -2.525694    1.936070   -2.381590
   7 H     1.0000    0     1.008   -3.827344   -1.247488   -2.394663
   8 H     1.0000    0     1.008   -3.827344   -1.247488    2.394663
   9 H     1.0000    0     1.008   -2.525694    1.936070    2.381590
  10 H     1.0000    0     1.008    1.701753    2.748454    0.000000
  11 H     1.0000    0     1.008    4.650796   -2.244575    0.000000
  12 H     1.0000    0     1.008    5.937173    0.998714    0.000000

--------------------------------
INTERNAL COORDINATES (ANGSTROEM)
--------------------------------
 C      0   0   0     0.000000000000     0.00000000     0.00000000
 C      1   0   0     1.516516207321     0.00000000     0.00000000
 C      2   1   0     1.498385600000    60.39470074     0.00000000
 C      1   2   3     1.473902878308   119.83322591   250.98293615
 C      4   1   2     1.330836232210   125.38478723   214.71489000
 H      1   2   3     1.084635521299   115.91654238   106.02796751
 H      2   1   3     1.083070030373   117.36327846   108.48519244
 H      2   1   3     1.082607076216   117.58172047   251.09053095
 H      3   2   1     1.082607076216   118.58632403   252.73157490
 H      3   2   1     1.083070030373   118.15709163   107.18665092
 H      4   1   2     1.089023108242   115.61259487    34.71489000
 H      5   4   1     1.084892931051   121.68510346     0.00000000
 H      5   4   1     1.082844824736   121.51275060   180.00000000

---------------------------
INTERNAL COORDINATES (A.U.)
---------------------------
 C      0   0   0     0.000000000000     0.00000000     0.00000000
 C      1   0   0     2.865800309490     0.00000000     0.00000000
 C      2   1   0     2.831538427011    60.39470074     0.00000000
 C      1   2   3     2.785272788001   119.83322591   250.98293615
 C      4   1   2     2.514916007977   125.38478723   214.71489000
 H      1   2   3     2.049664090378   115.91654238   106.02796751
 H      2   1   3     2.046705741262   117.36327846   108.48519244
 H      2   1   3     2.045830884693   117.58172047   251.09053095
 H      3   2   1     2.045830884693   118.58632403   252.73157490
 H      3   2   1     2.046705741262   118.15709163   107.18665092
 H      4   1   2     2.057955428089   115.61259487    34.71489000
 H      5   4   1     2.050150524313   121.68510346     0.00000000
 H      5   4   1     2.046280164284   121.51275060   180.00000000

---------------------
BASIS SET INFORMATION
---------------------
There are 2 groups of distinct atoms

 Group   1 Type C   : 8s4p1d contracted to 4s2p1d pattern {5111/31/1}
 Group   2 Type H   : 4s contracted to 2s pattern {31}

Atom   0C    basis set group =>   1
Atom   1C    basis set group =>   1
Atom   2C    basis set group =>   1
Atom   3C    basis set group =>   1
Atom   4C    basis set group =>   1
Atom   5H    basis set group =>   2
Atom   6H    basis set group =>   2
Atom   7H    basis set group =>   2
Atom   8H    basis set group =>   2
Atom   9H    basis set group =>   2
Atom  10H    basis set group =>   2
Atom  11H    basis set group =>   2
Atom  12H    basis set group =>   2
---------------------------------
AUXILIARY/J BASIS SET INFORMATION
---------------------------------
There are 2 groups of distinct atoms

 Group   1 Type C   : 12s5p4d2f1g contracted to 6s4p3d1f1g pattern {711111/2111/211/2/1}
 Group   2 Type H   : 5s2p1d contracted to 3s1p1d pattern {311/2/1}

Atom   0C    basis set group =>   1
Atom   1C    basis set group =>   1
Atom   2C    basis set group =>   1
Atom   3C    basis set group =>   1
Atom   4C    basis set group =>   1
Atom   5H    basis set group =>   2
Atom   6H    basis set group =>   2
Atom   7H    basis set group =>   2
Atom   8H    basis set group =>   2
Atom   9H    basis set group =>   2
Atom  10H    basis set group =>   2
Atom  11H    basis set group =>   2
Atom  12H    basis set group =>   2


           ************************************************************
           *        Program running with 4 parallel MPI-processes     *
           *              working on a common directory               *
           ************************************************************
------------------------------------------------------------------------------
                           ORCA GTO INTEGRAL CALCULATION
                           -- RI-GTO INTEGRALS CHOSEN --
------------------------------------------------------------------------------
------------------------------------------------------------------------------
                   ___                                                        
                  /   \      - P O W E R E D   B Y -                         
                 /     \                                                     
                 |  |  |   _    _      __       _____    __    __             
                 |  |  |  | |  | |    /  \     |  _  \  |  |  /  |          
                  \  \/   | |  | |   /    \    | | | |  |  | /  /          
                 / \  \   | |__| |  /  /\  \   | |_| |  |  |/  /          
                |  |  |   |  __  | /  /__\  \  |    /   |      \           
                |  |  |   | |  | | |   __   |  |    \   |  |\   \          
                \     /   | |  | | |  |  |  |  | |\  \  |  | \   \       
                 \___/    |_|  |_| |__|  |__|  |_| \__\ |__|  \__/        
                                                                              
                      - O R C A' S   B I G   F R I E N D -                    
                                      &                                       
                       - I N T E G R A L  F E E D E R -                       
                                                                              
 v1 FN, 2020, v2 2021                                                         
------------------------------------------------------------------------------


Reading SHARK input file pbeh-3c.SHARKINP.tmp ... ok
----------------------
SHARK INTEGRAL PACKAGE
----------------------

Number of atoms                             ...     13
Number of basis functions                   ...     91
Number of shells                            ...     51
Maximum angular momentum                    ...      2
Integral batch strategy                     ... SHARK/LIBINT Hybrid
RI-J (if used) integral strategy            ... SPLIT-RIJ (Revised 2003 algorithm where possible)
Printlevel                                  ...      1
Contraction scheme used                     ... SEGMENTED contraction
Coulomb Range Separation                    ... NOT USED
Exchange Range Separation                   ... NOT USED
Finite Nucleus Model                        ... NOT USED
Auxiliary Coulomb fitting basis             ... AVAILABLE
   # of basis functions in Aux-J            ...    333
   # of shells in Aux-J                     ...    115
   Maximum angular momentum in Aux-J        ...      4
Auxiliary J/K fitting basis                 ... NOT available
Auxiliary Correlation fitting basis         ... NOT available
Auxiliary 'external' fitting basis          ... NOT available
Integral threshold                          ...     2.500000e-11
Primitive cut-off                           ...     2.500000e-12
Primitive pair pre-selection threshold      ...     2.500000e-12

Calculating pre-screening integrals         ... done (  0.1 sec) Dimension = 51
Organizing shell pair data                  ... done (  0.3 sec)
Shell pair information
Total number of shell pairs                 ...      1326
Shell pairs after pre-screening             ...      1268
Total number of primitive shell pairs       ...      4842
Primitive shell pairs kept                  ...      3504
          la=0 lb=0:    616 shell pairs
          la=1 lb=0:    360 shell pairs
          la=1 lb=1:     55 shell pairs
          la=2 lb=0:    172 shell pairs
          la=2 lb=1:     50 shell pairs
          la=2 lb=2:     15 shell pairs

Calculating one electron integrals          ... done (  0.0 sec)
Calculating RI/J V-Matrix + Cholesky decomp.... done (  0.2 sec)
Calculating Nuclear repulsion               ... done (  0.0 sec) ENN=    163.054526990015 Eh

SHARK setup successfully completed in   1.0 seconds

Maximum memory used throughout the entire GTOINT-calculation: 10.0 MB


           ************************************************************
           *        Program running with 4 parallel MPI-processes     *
           *              working on a common directory               *
           ************************************************************
-------------------------------------------------------------------------------
                                 ORCA SCF
-------------------------------------------------------------------------------

------------
SCF SETTINGS
------------
Hamiltonian:
 Density Functional     Method          .... DFT(GTOs)
 Exchange Functional    Exchange        .... PBE
   PBE kappa parameter   XKappa         ....  1.024500
   PBE mue parameter    XMuePBE         ....  0.123457
 Correlation Functional Correlation     .... PBE
   PBE beta parameter  CBetaPBE         ....  0.030000
 LDA part of GGA corr.  LDAOpt          .... PW91-LDA
 Gradients option       PostSCFGGA      .... off
 Hybrid DFT is turned on
   Fraction HF Exchange ScalHFX         ....  0.420000
   Scaling of DF-GGA-X  ScalDFX         ....  0.580000
   Scaling of DF-GGA-C  ScalDFC         ....  1.000000
   Scaling of DF-LDA-C  ScalLDAC        ....  1.000000
   Perturbative correction              ....  0.000000
   Density functional embedding theory  .... OFF
 RI-approximation to the Coulomb term is turned on
   Number of AuxJ basis functions       .... 333
   RIJ-ON(X) (HFX calculated with O(N)) .... on
   Number of AuxJ basis functions       .... 333
   RIJ-COSX (HFX calculated with COS-X)).... on


General Settings:
 Integral files         IntName         .... pbeh-3c
 Hartree-Fock type      HFTyp           .... RHF
 Total Charge           Charge          ....    0
 Multiplicity           Mult            ....    1
 Number of Electrons    NEL             ....   38
 Basis Dimension        Dim             ....   91
 Nuclear Repulsion      ENuc            ....    163.0545269900 Eh

Convergence Acceleration:
 DIIS                   CNVDIIS         .... on
   Start iteration      DIISMaxIt       ....    12
   Startup error        DIISStart       ....  0.200000
   # of expansion vecs  DIISMaxEq       ....     5
   Bias factor          DIISBfac        ....   1.050
   Max. coefficient     DIISMaxC        ....  10.000
 Trust-Rad. Augm. Hess. CNVTRAH         .... auto
   Auto Start mean grad. ratio tolernc. ....  1.125000
   Auto Start start iteration           ....    20
   Auto Start num. interpolation iter.  ....    10
   Max. Number of Micro iterations      ....    16
   Max. Number of Macro iterations      .... Maxiter - #DIIS iter
   Number of Davidson start vectors     ....     2
   Converg. threshold I  (grad. norm)   ....   1.000e-05
   Converg. threshold II (energy diff.) ....   1.000e-08
   Grad. Scal. Fac. for Micro threshold ....   0.100
   Minimum threshold for Micro iter.    ....   0.010
   NR start threshold (gradient norm)   ....   0.001
   Initial trust radius                 ....   0.400
   Minimum AH scaling param. (alpha)    ....   1.000
   Maximum AH scaling param. (alpha)    .... 1000.000
   Orbital update algorithm             .... Taylor
   White noise on init. David. guess    .... on
   Maximum white noise                  ....   0.010
   Quad. conv. algorithm                .... NR
   COSX micro iterations for RIJONX calc.... off
 SOSCF                  CNVSOSCF        .... on
   Start iteration      SOSCFMaxIt      ....   150
   Startup grad/error   SOSCFStart      ....  0.003300
 Level Shifting         CNVShift        .... on
   Level shift para.    LevelShift      ....    0.2500
   Turn off err/grad.   ShiftErr        ....    0.0010
 Zerner damping         CNVZerner       .... off
 Static damping         CNVDamp         .... on
   Fraction old density DampFac         ....    0.7000
   Max. Damping (<1)    DampMax         ....    0.9800
   Min. Damping (>=0)   DampMin         ....    0.0000
   Turn off err/grad.   DampErr         ....    0.1000
 Fernandez-Rico         CNVRico         .... off

SCF Procedure:
 Maximum # iterations   MaxIter         ....   125
 SCF integral mode      SCFMode         .... Direct
   Integral package                     .... SHARK and LIBINT hybrid scheme
 Reset frequency        DirectResetFreq ....    20
 Integral Threshold     Thresh          ....  2.500e-11 Eh
 Primitive CutOff       TCut            ....  2.500e-12 Eh

Convergence Tolerance:
 Convergence Check Mode ConvCheckMode   .... Total+1el-Energy
 Convergence forced     ConvForced      .... 0
 Energy Change          TolE            ....  1.000e-08 Eh
 1-El. energy change                    ....  1.000e-05 Eh
 Orbital Gradient       TolG            ....  1.000e-05
 Orbital Rotation angle TolX            ....  1.000e-05
 DIIS Error             TolErr          ....  5.000e-07


Diagonalization of the overlap matrix:
Smallest eigenvalue                        ... 3.913e-03
Time for diagonalization                   ...    0.002 sec
Threshold for overlap eigenvalues          ... 1.000e-08
Number of eigenvalues below threshold      ... 0
Time for construction of square roots      ...    0.112 sec
Total time needed                          ...    0.114 sec

--------------------------------
INITIAL GUESS: MINIMAL BASIS EHT
--------------------------------
The minimal basis has 33 functions
EHT matrix was diagonalized
Basis set overlap was calculated now projecting the orbitals
Using GuessMode=FMatrix for the initial guess
C*T matrix was formed
Effective Fockian was calculated
Effective Fockian was diagonalized
Initial density was built
                      ------------------
                      INITIAL GUESS DONE
                      ------------------
-------------------
DFT GRID GENERATION
-------------------

General Integration Accuracy     IntAcc      ... 4.959
Radial Grid Type                 RadialGrid  ... OptM3 with GC (2021)
Angular Grid (max. ang.)         AngularGrid ... 6 (Lebedev-590)
Angular grid pruning method      GridPruning ... 4 (adaptive)
Weight generation scheme         WeightScheme... Becke
Basis function cutoff            BFCut       ... 1.0000e-11
Integration weight cutoff        WCut        ... 1.0000e-14
Angular grids for H and He will be reduced by one unit
Partially contracted basis set               ... off
Rotationally invariant grid construction     ... off

Total number of grid points                  ...   141880
Total number of batches                      ...     2224
Average number of points per batch           ...       63
Average number of grid points per atom       ...    10914
Time for grid setup =    2.181 sec

--------------------
COSX GRID GENERATION
--------------------

GRIDX 1
-------
General Integration Accuracy     IntAcc      ... 4.020
Radial Grid Type                 RadialGrid  ... OptM3 with GC (2021)
Angular Grid (max. ang.)         AngularGrid ... 2 (Lebedev-110)
Angular grid pruning method      GridPruning ... 4 (adaptive)
Weight generation scheme         WeightScheme... Becke
Basis function cutoff            BFCut       ... 1.0000e-11
Integration weight cutoff        WCut        ... 1.0000e-14
Angular grids for H and He will be reduced by one unit
Partially contracted basis set               ... on
Rotationally invariant grid construction     ... off

Total number of grid points                  ...    15267
Total number of batches                      ...      244
Average number of points per batch           ...       62
Average number of grid points per atom       ...     1174
UseSFitting                                  ... on

GRIDX 2
-------
General Integration Accuracy     IntAcc      ... 4.338
Radial Grid Type                 RadialGrid  ... OptM3 with GC (2021)
Angular Grid (max. ang.)         AngularGrid ... 3 (Lebedev-194)
Angular grid pruning method      GridPruning ... 4 (adaptive)
Weight generation scheme         WeightScheme... Becke
Basis function cutoff            BFCut       ... 1.0000e-11
Integration weight cutoff        WCut        ... 1.0000e-14
Angular grids for H and He will be reduced by one unit
Partially contracted basis set               ... on
Rotationally invariant grid construction     ... off

Total number of grid points                  ...    33418
Total number of batches                      ...      529
Average number of points per batch           ...       63
Average number of grid points per atom       ...     2571
UseSFitting                                  ... on

GRIDX 3
-------
General Integration Accuracy     IntAcc      ... 4.871
Radial Grid Type                 RadialGrid  ... OptM3 with GC (2021)
Angular Grid (max. ang.)         AngularGrid ... 4 (Lebedev-302)
Angular grid pruning method      GridPruning ... 4 (adaptive)
Weight generation scheme         WeightScheme... Becke
Basis function cutoff            BFCut       ... 1.0000e-11
Integration weight cutoff        WCut        ... 1.0000e-14
Angular grids for H and He will be reduced by one unit
Partially contracted basis set               ... on
Rotationally invariant grid construction     ... off

Total number of grid points                  ...    65824
Total number of batches                      ...     1036
Average number of points per batch           ...       63
Average number of grid points per atom       ...     5063
UseSFitting                                  ... on

Time for X-Grid setup             =    2.271 sec

--------------
SCF ITERATIONS
--------------
ITER       Energy         Delta-E        Max-DP      RMS-DP      [F,P]     Damp
               ***  Starting incremental Fock matrix formation  ***
  0   -194.4153043436   0.000000000000 0.08804037  0.00339795  0.4069420 0.7000
  1   -194.5464244563  -0.131120112715 0.06318201  0.00255675  0.2868009 0.7000
  2   -194.6398645871  -0.093440130780 0.04326819  0.00191047  0.2018065 0.7000
                               ***Turning on DIIS***
  3   -194.7063990654  -0.066534478365 0.02993739  0.00142993  0.1418107 0.7000
  4   -194.7537781695  -0.047379104014 0.07542346  0.00379992  0.0995231 0.0000
  5   -194.8676598544  -0.113881684903 0.00804188  0.00028889  0.0072200 0.0000
                      *** Initiating the SOSCF procedure ***
                           *** Shutting down DIIS ***
                      *** Re-Reading the Fockian *** 
                      *** Removing any level shift *** 
ITER      Energy       Delta-E        Grad      Rot      Max-DP    RMS-DP
  6   -194.86784415  -0.0001842919  0.001170  0.001170  0.002650  0.000112
               *** Restarting incremental Fock matrix formation ***
  7   -194.86787241  -0.0000282641  0.000508  0.001202  0.002351  0.000071
  8   -194.86787422  -0.0000018053  0.000616  0.000857  0.000992  0.000035
  9   -194.86787767  -0.0000034567  0.000042  0.000087  0.000152  0.000006
 10   -194.86787769  -0.0000000131  0.000032  0.000036  0.000049  0.000002
                  ***Gradient check signals convergence***
              ***Rediagonalizing the Fockian in SOSCF/NRSCF***

               *****************************************************
               *                     SUCCESS                       *
               *           SCF CONVERGED AFTER  11 CYCLES          *
               *****************************************************

Old exchange energy                            =    -12.065681971 Eh
New exchange energy                            =    -12.065674238 Eh
Exchange energy change after final integration =      0.000007733 Eh
Total energy after final integration           =   -194.867869977 Eh
Final COS-X integration done in                =     1.979 sec

----------------
TOTAL SCF ENERGY
----------------

Total Energy       :         -194.86786998 Eh           -5302.62432 eV

Components:
Nuclear Repulsion  :          163.05452699 Eh            4436.93925 eV
Electronic Energy  :         -357.92239697 Eh           -9739.56357 eV
One Electron Energy:         -583.66468377 Eh          -15882.32349 eV
Two Electron Energy:          225.74228680 Eh            6142.75992 eV
Max COSX asymmetry :            0.00000073 Eh               0.00002 eV

Virial components:
Potential Energy   :         -388.07441604 Eh          -10560.04172 eV
Kinetic Energy     :          193.20654606 Eh            5257.41740 eV
Virial Ratio       :            2.00859869


DFT components:
N(Alpha)           :       19.000002107568 electrons
N(Beta)            :       19.000002107568 electrons
N(Total)           :       38.000004215136 electrons
E(X)               :      -15.998279939903 Eh       
E(C)               :       -1.609996805214 Eh       
E(XC)              :      -17.608276745117 Eh       
DFET-embed. en.    :        0.000000000000 Eh       

---------------
SCF CONVERGENCE
---------------

  Last Energy change         ...   -2.4326e-08  Tolerance :   1.0000e-08
  Last MAX-Density change    ...    2.4425e-15  Tolerance :   1.0000e-07
  Last RMS-Density change    ...    7.0174e-17  Tolerance :   5.0000e-09
  Last Orbital Gradient      ...    2.3187e-06  Tolerance :   1.0000e-05
  Last Orbital Rotation      ...    5.8924e-06  Tolerance :   1.0000e-05

             **** THE GBW FILE WAS UPDATED (pbeh-3c.gbw) ****
             **** DENSITY pbeh-3c.scfp WAS UPDATED ****
             **** ENERGY FILE WAS UPDATED (pbeh-3c.en.tmp) ****
             **** THE GBW FILE WAS UPDATED (pbeh-3c.gbw) ****
             **** DENSITY pbeh-3c.scfp WAS UPDATED ****
----------------
ORBITAL ENERGIES
----------------

  NO   OCC          E(Eh)            E(eV) 
   0   2.0000     -10.451766      -284.4070 
   1   2.0000     -10.446287      -284.2579 
   2   2.0000     -10.443050      -284.1698 
   3   2.0000     -10.442782      -284.1625 
   4   2.0000     -10.427486      -283.7463 
   5   2.0000      -0.959396       -26.1065 
   6   2.0000      -0.849680       -23.1210 
   7   2.0000      -0.694777       -18.9058 
   8   2.0000      -0.676988       -18.4218 
   9   2.0000      -0.626410       -17.0455 
  10   2.0000      -0.551216       -14.9993 
  11   2.0000      -0.537944       -14.6382 
  12   2.0000      -0.480064       -13.0632 
  13   2.0000      -0.452111       -12.3026 
  14   2.0000      -0.421863       -11.4795 
  15   2.0000      -0.394438       -10.7332 
  16   2.0000      -0.381796       -10.3892 
  17   2.0000      -0.347899        -9.4668 
  18   2.0000      -0.278741        -7.5849 
  19   0.0000       0.048525         1.3204 
  20   0.0000       0.148333         4.0363 
  21   0.0000       0.151974         4.1354 
  22   0.0000       0.173512         4.7215 
  23   0.0000       0.176967         4.8155 
  24   0.0000       0.210463         5.7270 
  25   0.0000       0.213830         5.8186 
  26   0.0000       0.217106         5.9077 
  27   0.0000       0.261545         7.1170 
  28   0.0000       0.279868         7.6156 
  29   0.0000       0.288969         7.8633 
  30   0.0000       0.291659         7.9365 
  31   0.0000       0.343106         9.3364 
  32   0.0000       0.393490        10.7074 
  33   0.0000       0.466404        12.6915 
  34   0.0000       0.499931        13.6038 
  35   0.0000       0.529676        14.4132 
  36   0.0000       0.541915        14.7462 
  37   0.0000       0.572790        15.5864 
  38   0.0000       0.618821        16.8390 
  39   0.0000       0.622004        16.9256 
  40   0.0000       0.635044        17.2804 
  41   0.0000       0.653459        17.7815 
  42   0.0000       0.682876        18.5820 
  43   0.0000       0.690653        18.7936 
  44   0.0000       0.733072        19.9479 
  45   0.0000       0.736339        20.0368 
  46   0.0000       0.829179        22.5631 
  47   0.0000       0.933182        25.3932 
  48   0.0000       0.935055        25.4441 
  49   0.0000       0.980998        26.6943 
  50   0.0000       0.996042        27.1037 
  51   0.0000       1.040565        28.3152 
  52   0.0000       1.064035        28.9539 
  53   0.0000       1.068438        29.0737 
  54   0.0000       1.073750        29.2182 
  55   0.0000       1.089386        29.6437 
  56   0.0000       1.138861        30.9900 
  57   0.0000       1.180371        32.1195 
  58   0.0000       1.243250        33.8305 
  59   0.0000       1.257326        34.2136 
  60   0.0000       1.336333        36.3635 
  61   0.0000       1.548601        42.1396 
  62   0.0000       1.622344        44.1462 
  63   0.0000       1.630332        44.3636 
  64   0.0000       1.786742        48.6197 
  65   0.0000       1.857997        50.5587 
  66   0.0000       1.873424        50.9785 
  67   0.0000       1.886599        51.3370 
  68   0.0000       1.919829        52.2412 
  69   0.0000       2.002616        54.4939 
  70   0.0000       2.024848        55.0989 
  71   0.0000       2.099656        57.1346 
  72   0.0000       2.118701        57.6528 
  73   0.0000       2.216251        60.3073 
  74   0.0000       2.244275        61.0698 
  75   0.0000       2.297992        62.5315 
  76   0.0000       2.365093        64.3574 
  77   0.0000       2.467039        67.1315 
  78   0.0000       2.472149        67.2706 
  79   0.0000       2.498432        67.9858 
  80   0.0000       2.536457        69.0205 
  81   0.0000       2.655718        72.2658 
  82   0.0000       2.675567        72.8059 
  83   0.0000       2.842267        77.3420 
  84   0.0000       2.901641        78.9577 
  85   0.0000       3.000935        81.6596 
  86   0.0000      13.381561       364.1308 
  87   0.0000      13.654270       371.5516 
  88   0.0000      13.947379       379.5275 
  89   0.0000      13.991176       380.7193 
  90   0.0000      14.177849       385.7989 

                    ********************************
                    * MULLIKEN POPULATION ANALYSIS *
                    ********************************

-----------------------
MULLIKEN ATOMIC CHARGES
-----------------------
   0 C :   -0.292987
   1 C :   -0.451844
   2 C :   -0.451844
   3 C :   -0.097108
   4 C :   -0.506178
   5 H :    0.232053
   6 H :    0.233309
   7 H :    0.238185
   8 H :    0.238185
   9 H :    0.233309
  10 H :    0.203943
  11 H :    0.207933
  12 H :    0.213045
Sum of atomic charges:   -0.0000000

--------------------------------
MULLIKEN REDUCED ORBITAL CHARGES
--------------------------------
  0 C s       :     3.274219  s :     3.274219
      pz      :     1.034240  p :     2.967740
      px      :     0.837420
      py      :     1.096081
      dz2     :     0.008765  d :     0.051028
      dxz     :     0.012448
      dyz     :     0.003647
      dx2y2   :     0.014919
      dxy     :     0.011249
  1 C s       :     3.311769  s :     3.311769
      pz      :     0.930881  p :     3.096115
      px      :     1.023507
      py      :     1.141726
      dz2     :     0.010339  d :     0.043960
      dxz     :     0.010125
      dyz     :     0.010231
      dx2y2   :     0.006709
      dxy     :     0.006556
  2 C s       :     3.311769  s :     3.311769
      pz      :     0.930881  p :     3.096115
      px      :     1.023507
      py      :     1.141726
      dz2     :     0.010339  d :     0.043960
      dxz     :     0.010125
      dyz     :     0.010231
      dx2y2   :     0.006709
      dxy     :     0.006556
  3 C s       :     3.198962  s :     3.198962
      pz      :     0.961916  p :     2.856645
      px      :     0.878520
      py      :     1.016208
      dz2     :     0.003712  d :     0.041502
      dxz     :     0.009818
      dyz     :     0.001376
      dx2y2   :     0.015269
      dxy     :     0.011327
  4 C s       :     3.324063  s :     3.324063
      pz      :     1.052181  p :     3.149689
      px      :     1.014123
      py      :     1.083385
      dz2     :     0.004130  d :     0.032426
      dxz     :     0.004741
      dyz     :     0.000767
      dx2y2   :     0.011264
      dxy     :     0.011524
  5 H s       :     0.767947  s :     0.767947
  6 H s       :     0.766691  s :     0.766691
  7 H s       :     0.761815  s :     0.761815
  8 H s       :     0.761815  s :     0.761815
  9 H s       :     0.766691  s :     0.766691
 10 H s       :     0.796057  s :     0.796057
 11 H s       :     0.792067  s :     0.792067
 12 H s       :     0.786955  s :     0.786955


                     *******************************
                     * LOEWDIN POPULATION ANALYSIS *
                     *******************************

----------------------
LOEWDIN ATOMIC CHARGES
----------------------
   0 C :   -0.156970
   1 C :   -0.250384
   2 C :   -0.250384
   3 C :   -0.125301
   4 C :   -0.286633
   5 H :    0.136680
   6 H :    0.135460
   7 H :    0.137420
   8 H :    0.137420
   9 H :    0.135460
  10 H :    0.127679
  11 H :    0.127861
  12 H :    0.131692

-------------------------------
LOEWDIN REDUCED ORBITAL CHARGES
-------------------------------
  0 C s       :     2.857073  s :     2.857073
      pz      :     1.113033  p :     3.189216
      px      :     0.983844
      py      :     1.092339
      dz2     :     0.016884  d :     0.110681
      dxz     :     0.027705
      dyz     :     0.007420
      dx2y2   :     0.031896
      dxy     :     0.026776
  1 C s       :     2.904573  s :     2.904573
      pz      :     1.041197  p :     3.256209
      px      :     1.092228
      py      :     1.122784
      dz2     :     0.022127  d :     0.089602
      dxz     :     0.021363
      dyz     :     0.020876
      dx2y2   :     0.012856
      dxy     :     0.012380
  2 C s       :     2.904573  s :     2.904573
      pz      :     1.041197  p :     3.256209
      px      :     1.092228
      py      :     1.122784
      dz2     :     0.022127  d :     0.089602
      dxz     :     0.021363
      dyz     :     0.020876
      dx2y2   :     0.012856
      dxy     :     0.012380
  3 C s       :     2.905945  s :     2.905945
      pz      :     0.950477  p :     3.126096
      px      :     1.091799
      py      :     1.083820
      dz2     :     0.006136  d :     0.093260
      dxz     :     0.019675
      dyz     :     0.002461
      dx2y2   :     0.035655
      dxy     :     0.029333
  4 C s       :     2.959536  s :     2.959536
      pz      :     1.051859  p :     3.260993
      px      :     1.107870
      py      :     1.101265
      dz2     :     0.005719  d :     0.066104
      dxz     :     0.008022
      dyz     :     0.001303
      dx2y2   :     0.025445
      dxy     :     0.025615
  5 H s       :     0.863320  s :     0.863320
  6 H s       :     0.864540  s :     0.864540
  7 H s       :     0.862580  s :     0.862580
  8 H s       :     0.862580  s :     0.862580
  9 H s       :     0.864540  s :     0.864540
 10 H s       :     0.872321  s :     0.872321
 11 H s       :     0.872139  s :     0.872139
 12 H s       :     0.868308  s :     0.868308


                      *****************************
                      * MAYER POPULATION ANALYSIS *
                      *****************************

  NA   - Mulliken gross atomic population
  ZA   - Total nuclear charge
  QA   - Mulliken gross atomic charge
  VA   - Mayer's total valence
  BVA  - Mayer's bonded valence
  FA   - Mayer's free valence

  ATOM       NA         ZA         QA         VA         BVA        FA
  0 C      6.2930     6.0000    -0.2930     3.7477     3.7477    -0.0000
  1 C      6.4518     6.0000    -0.4518     3.6945     3.6945    -0.0000
  2 C      6.4518     6.0000    -0.4518     3.6945     3.6945    -0.0000
  3 C      6.0971     6.0000    -0.0971     3.8096     3.8096    -0.0000
  4 C      6.5062     6.0000    -0.5062     3.8165     3.8165    -0.0000
  5 H      0.7679     1.0000     0.2321     0.9181     0.9181     0.0000
  6 H      0.7667     1.0000     0.2333     0.9179     0.9179    -0.0000
  7 H      0.7618     1.0000     0.2382     0.9167     0.9167     0.0000
  8 H      0.7618     1.0000     0.2382     0.9167     0.9167    -0.0000
  9 H      0.7667     1.0000     0.2333     0.9179     0.9179    -0.0000
 10 H      0.7961     1.0000     0.2039     0.9188     0.9188     0.0000
 11 H      0.7921     1.0000     0.2079     0.9249     0.9249     0.0000
 12 H      0.7870     1.0000     0.2130     0.9247     0.9247    -0.0000

  Mayer bond orders larger than 0.100000
B(  0-C ,  1-C ) :   0.9169 B(  0-C ,  2-C ) :   0.9169 B(  0-C ,  3-C ) :   1.0329 
B(  0-C ,  5-H ) :   0.9174 B(  1-C ,  2-C ) :   0.9358 B(  1-C ,  6-H ) :   0.9246 
B(  1-C ,  7-H ) :   0.9231 B(  2-C ,  8-H ) :   0.9231 B(  2-C ,  9-H ) :   0.9246 
B(  3-C ,  4-C ) :   1.9125 B(  3-C , 10-H ) :   0.9203 B(  4-C , 11-H ) :   0.9318 
B(  4-C , 12-H ) :   0.9296 

-------
TIMINGS
-------

Total SCF time: 0 days 0 hours 1 min 3 sec 

Total time                  ....      63.545 sec
Sum of individual times     ....      58.226 sec  ( 91.6%)

Fock matrix formation       ....      49.527 sec  ( 77.9%)
  Split-RI-J                ....       6.107 sec  ( 12.3% of F)
  Chain of spheres X        ....      15.942 sec  ( 32.2% of F)
  XC integration            ....      13.809 sec  ( 27.9% of F)
    Basis function eval.    ....       2.237 sec  ( 16.2% of XC)
    Density eval.           ....       1.322 sec  (  9.6% of XC)
    XC-Functional eval.     ....       1.193 sec  (  8.6% of XC)
    XC-Potential eval.      ....       0.950 sec  (  6.9% of XC)
Diagonalization             ....       0.428 sec  (  0.7%)
Density matrix formation    ....       0.067 sec  (  0.1%)
Population analysis         ....       0.544 sec  (  0.9%)
Initial guess               ....       0.007 sec  (  0.0%)
Orbital Transformation      ....       0.000 sec  (  0.0%)
Orbital Orthonormalization  ....       0.000 sec  (  0.0%)
DIIS solution               ....       1.461 sec  (  2.3%)
SOSCF solution              ....       1.740 sec  (  2.7%)
Grid generation             ....       4.452 sec  (  7.0%)

Maximum memory used throughout the entire SCF-calculation: 50.3 MB


-------------------------------------------------------------------------------
                          DFT DISPERSION CORRECTION                            
                                                                               
                              DFTD3 V3.1  Rev 1                                
                          USING Becke-Johnson damping                          
-------------------------------------------------------------------------------
The PBEh-3c composite method is recognized
Using three-body term ABC
Active option DFTDOPT                   ...         4   

molecular C6(AA) [au] = 1365.343676 


            DFT-D V3
 parameters
 s6 scaling factor         :     1.0000 
 a1 scaling factor         :     0.4860 
 s8 scaling factor         :     0.0000 
 a2 scaling factor         :     4.5000 
 Damping factor alpha9(ATM):    16.0000 
 ad hoc parameters k1-k3   :    16.0000     1.3333    -4.0000 

 Edisp/kcal,au: -3.208826488846  -0.005113589960 
 E6   /kcal   :  -3.216139360 
 E8   /kcal   :  -0.000000000 
 E6(ABC)      :   0.007312871 
 % E8         :   0.000000000 
 % E6(ABC)    :  -0.227898622 

-------------------------   ----------------
Dispersion correction           -0.005113590
-------------------------   ----------------

------------------   -----------------
gCP correction             0.016902917
------------------   -----------------

-------------------------   --------------------
FINAL SINGLE POINT ENERGY      -194.856080649741
-------------------------   --------------------


                            ***************************************
                            *     ORCA property calculations      *
                            ***************************************

                                    ---------------------
                                    Active property flags
                                    ---------------------
   (+) Dipole Moment


------------------------------------------------------------------------------
                       ORCA ELECTRIC PROPERTIES CALCULATION
------------------------------------------------------------------------------

Dipole Moment Calculation                       ... on
Quadrupole Moment Calculation                   ... off
Polarizability Calculation                      ... off
GBWName                                         ... pbeh-3c.gbw
Electron density                                ... pbeh-3c.scfp
The origin for moment calculation is the CENTER OF MASS  = ( 0.082599, -0.007332 -0.000000)

-------------
DIPOLE MOMENT
-------------
                                X             Y             Z
Electronic contribution:      0.37134      -0.06090       0.00000
Nuclear contribution   :     -0.58193       0.05165       0.00000
                        -----------------------------------------
Total Dipole Moment    :     -0.21059      -0.00925       0.00000
                        -----------------------------------------
Magnitude (a.u.)       :      0.21080
Magnitude (Debye)      :      0.53580



--------------------
Rotational spectrum 
--------------------
 
Rotational constants in cm-1:     0.508120     0.101626     0.097699 
Rotational constants in MHz : 15233.049553  3046.679123  2928.928582 

 Dipole components along the rotational axes: 
x,y,z [a.u.] :    -0.210593     0.000000    -0.009249 
x,y,z [Debye]:    -0.535286     0.000000    -0.023508 

 

Timings for individual modules:

Sum of individual times         ...       65.812 sec (=   1.097 min)
GTO integral calculation        ...        1.642 sec (=   0.027 min)   2.5 %
SCF iterations                  ...       64.170 sec (=   1.070 min)  97.5 %
                             ****ORCA TERMINATED NORMALLY****
TOTAL RUN TIME: 0 days 0 hours 1 minutes 7 seconds 359 msec
