
                                 *****************
                                 * O   R   C   A *
                                 *****************

                                            #,                                       
                                            ###                                      
                                            ####                                     
                                            #####                                    
                                            ######                                   
                                           ########,                                 
                                     ,,################,,,,,                         
                               ,,#################################,,                 
                          ,,##########################################,,             
                       ,#########################################, ''#####,          
                    ,#############################################,,   '####,        
                  ,##################################################,,,,####,       
                ,###########''''           ''''###############################       
              ,#####''   ,,,,##########,,,,          '''####'''          '####       
            ,##' ,,,,###########################,,,                        '##       
           ' ,,###''''                  '''############,,,                           
         ,,##''                                '''############,,,,        ,,,,,,###''
      ,#''                                            '''#######################'''  
     '                                                          ''''####''''         
             ,#######,   #######,   ,#######,      ##                                
            ,#'     '#,  ##    ##  ,#'     '#,    #''#        ######   ,####,        
            ##       ##  ##   ,#'  ##            #'  '#       #        #'  '#        
            ##       ##  #######   ##           ,######,      #####,   #    #        
            '#,     ,#'  ##    ##  '#,     ,#' ,#      #,         ##   #,  ,#        
             '#######'   ##     ##  '#######'  #'      '#     #####' # '####'        



                  #######################################################
                  #                        -***-                        #
                  #          Department of theory and spectroscopy      #
                  #    Directorship and core code : Frank Neese         #
                  #        Max Planck Institute fuer Kohlenforschung    #
                  #                Kaiser Wilhelm Platz 1               #
                  #                 D-45470 Muelheim/Ruhr               #
                  #                      Germany                        #
                  #                                                     #
                  #                  All rights reserved                #
                  #                        -***-                        #
                  #######################################################


                         Program Version 5.0.3 -  RELEASE  -


 With contributions from (in alphabetic order):
   Daniel Aravena         : Magnetic Suceptibility
   Michael Atanasov       : Ab Initio Ligand Field Theory (pilot matlab implementation)
   Alexander A. Auer      : GIAO ZORA, VPT2 properties, NMR spectrum
   Ute Becker             : Parallelization
   Giovanni Bistoni       : ED, misc. LED, open-shell LED, HFLD
   Martin Brehm           : Molecular dynamics
   Dmytro Bykov           : SCF Hessian
   Vijay G. Chilkuri      : MRCI spin determinant printing, contributions to CSF-ICE
   Dipayan Datta          : RHF DLPNO-CCSD density
   Achintya Kumar Dutta   : EOM-CC, STEOM-CC
   Dmitry Ganyushin       : Spin-Orbit,Spin-Spin,Magnetic field MRCI
   Miquel Garcia          : C-PCM and meta-GGA Hessian, CC/C-PCM, Gaussian charge scheme
   Yang Guo               : DLPNO-NEVPT2, F12-NEVPT2, CIM, IAO-localization
   Andreas Hansen         : Spin unrestricted coupled pair/coupled cluster methods
   Benjamin Helmich-Paris : MC-RPA, TRAH-SCF, COSX integrals
   Lee Huntington         : MR-EOM, pCC
   Robert Izsak           : Overlap fitted RIJCOSX, COSX-SCS-MP3, EOM
   Marcus Kettner         : VPT2
   Christian Kollmar      : KDIIS, OOCD, Brueckner-CCSD(T), CCSD density, CASPT2, CASPT2-K
   Simone Kossmann        : Meta GGA functionals, TD-DFT gradient, OOMP2, MP2 Hessian
   Martin Krupicka        : Initial AUTO-CI
   Lucas Lang             : DCDCAS
   Marvin Lechner         : AUTO-CI (C++ implementation), FIC-MRCC
   Dagmar Lenk            : GEPOL surface, SMD
   Dimitrios Liakos       : Extrapolation schemes; Compound Job, initial MDCI parallelization
   Dimitrios Manganas     : Further ROCIS development; embedding schemes
   Dimitrios Pantazis     : SARC Basis sets
   Anastasios Papadopoulos: AUTO-CI, single reference methods and gradients
   Taras Petrenko         : DFT Hessian,TD-DFT gradient, ASA, ECA, R-Raman, ABS, FL, XAS/XES, NRVS
   Peter Pinski           : DLPNO-MP2, DLPNO-MP2 Gradient
   Christoph Reimann      : Effective Core Potentials
   Marius Retegan         : Local ZFS, SOC
   Christoph Riplinger    : Optimizer, TS searches, QM/MM, DLPNO-CCSD(T), (RO)-DLPNO pert. Triples
   Tobias Risthaus        : Range-separated hybrids, TD-DFT gradient, RPA, STAB
   Michael Roemelt        : Original ROCIS implementation
   Masaaki Saitow         : Open-shell DLPNO-CCSD energy and density
   Barbara Sandhoefer     : DKH picture change effects
   Avijit Sen             : IP-ROCIS
   Kantharuban Sivalingam : CASSCF convergence, NEVPT2, FIC-MRCI
   Bernardo de Souza      : ESD, SOC TD-DFT
   Georgi Stoychev        : AutoAux, RI-MP2 NMR, DLPNO-MP2 response
   Willem Van den Heuvel  : Paramagnetic NMR
   Boris Wezisla          : Elementary symmetry handling
   Frank Wennmohs         : Technical directorship


 We gratefully acknowledge several colleagues who have allowed us to
 interface, adapt or use parts of their codes:
   Stefan Grimme, W. Hujo, H. Kruse, P. Pracht,  : VdW corrections, initial TS optimization,
                  C. Bannwarth, S. Ehlert          DFT functionals, gCP, sTDA/sTD-DF
   Ed Valeev, F. Pavosevic, A. Kumar             : LibInt (2-el integral package), F12 methods
   Garnet Chan, S. Sharma, J. Yang, R. Olivares  : DMRG
   Ulf Ekstrom                                   : XCFun DFT Library
   Mihaly Kallay                                 : mrcc  (arbitrary order and MRCC methods)
   Jiri Pittner, Ondrej Demel                    : Mk-CCSD
   Frank Weinhold                                : gennbo (NPA and NBO analysis)
   Christopher J. Cramer and Donald G. Truhlar   : smd solvation model
   Lars Goerigk                                  : TD-DFT with DH, B97 family of functionals
   V. Asgeirsson, H. Jonsson                     : NEB implementation
   FAccTs GmbH                                   : IRC, NEB, NEB-TS, DLPNO-Multilevel, CI-OPT
                                                   MM, QMMM, 2- and 3-layer-ONIOM, Crystal-QMMM,
                                                   LR-CPCM, SF, NACMEs, symmetry and pop. for TD-DFT,
                                                   nearIR, NL-DFT gradient (VV10), updates on ESD,
                                                   ML-optimized integration grids
   S Lehtola, MJT Oliveira, MAL Marques          : LibXC Library
   Liviu Ungur et al                             : ANISO software


 Your calculation uses the libint2 library for the computation of 2-el integrals
 For citations please refer to: http://libint.valeyev.net

 Your ORCA version has been built with support for libXC version: 5.1.0
 For citations please refer to: https://tddft.org/programs/libxc/

 This ORCA versions uses:
   CBLAS   interface :  Fast vector & matrix operations
   LAPACKE interface :  Fast linear algebra routines
   SCALAPACK package :  Parallel linear algebra routines
   Shared memory     :  Shared parallel matrices
   BLAS/LAPACK       :  OpenBLAS 0.3.15  USE64BITINT DYNAMIC_ARCH NO_AFFINITY Haswell SINGLE_THREADED
        Core in use  :  Haswell
   Copyright (c) 2011-2014, The OpenBLAS Project




***************************************
The coordinates will be read from file: R26.xyz
***************************************


Your calculation utilizes the geometrical counterpoise correction gCP
Please cite in your paper:
H.Kruse, S. Grimme J.Chem.Phys., 136, (2012), 154101 
   

Your calculation utilizes the atom-pairwise dispersion correction
with the Becke-Johnson damping scheme (D3BJ)
Cite in your paper:
S.Grimme, S.Ehrlich, L.Goerigk, J Comput Chem, (2011), 32, 1456–1465 
S.Grimme, J.Antony, S.Ehrlich and H.Krieg, J.Chem.Phys., 132, (2010), 154104 
   

Your calculation employs the composite approach PBEh-3c.
Please cite in your paper:
S. Grimme, J. G. Brandenburg, C. Bannwarth, A. Hansen J.Chem.Phys., 143, (2015), 054107 
   

================================================================================

----- Orbital basis set information -----
Your calculation utilizes the basis: def2-mSVP

----- AuxJ basis set information -----
Your calculation utilizes the auxiliary basis: def2/J
   F. Weigend, Phys. Chem. Chem. Phys. 8, 1057 (2006).

================================================================================
                                        WARNINGS
                       Please study these warnings very carefully!
================================================================================


INFO   : the flag for use of the SHARK integral package has been found!

================================================================================
                                       INPUT FILE
================================================================================
NAME = pbeh-3c.inp
|  1> ! PBEh-3c def2/J TightSCF DefGrid3
|  2> 
|  3> %maxcore 60000
|  4> 
|  5> %pal
|  6> nprocs 4
|  7> end
|  8> 
|  9> *xyzfile 0 1 R26.xyz
| 10> 
| 11>                          ****END OF INPUT****
================================================================================

                       ****************************
                       * Single Point Calculation *
                       ****************************

---------------------------------
CARTESIAN COORDINATES (ANGSTROEM)
---------------------------------
  C      0.000000    0.183665    0.000000
  C      1.352893   -0.311559    0.000000
  C      0.384215   -1.201725    0.000000
  C     -0.896179    1.161109    0.000000
  C     -0.055283   -2.605909    0.000000
  C     -0.543777    2.621061    0.000000
  H      2.410360   -0.114803    0.000000
  H     -1.946916    0.895570    0.000000
  H     -0.676871   -2.802031    0.876341
  H     -0.676871   -2.802031   -0.876341
  H      0.538034    2.761293    0.000000
  H     -0.943512    3.138466   -0.877462
  H      0.788073   -3.294780    0.000000
  H     -0.943512    3.138466    0.877462

----------------------------
CARTESIAN COORDINATES (A.U.)
----------------------------
  NO LB      ZA    FRAG     MASS         X           Y           Z
   0 C     6.0000    0    12.011    0.000000    0.347077    0.000000
   1 C     6.0000    0    12.011    2.556597   -0.588761    0.000000
   2 C     6.0000    0    12.011    0.726061   -2.270931    0.000000
   3 C     6.0000    0    12.011   -1.693533    2.194178    0.000000
   4 C     6.0000    0    12.011   -0.104470   -4.924454    0.000000
   5 C     6.0000    0    12.011   -1.027590    4.953087    0.000000
   6 H     1.0000    0     1.008    4.554920   -0.216946    0.000000
   7 H     1.0000    0     1.008   -3.679138    1.692382    0.000000
   8 H     1.0000    0     1.008   -1.279101   -5.295071    1.656044
   9 H     1.0000    0     1.008   -1.279101   -5.295071   -1.656044
  10 H     1.0000    0     1.008    1.016737    5.218087    0.000000
  11 H     1.0000    0     1.008   -1.782979    5.930841   -1.658163
  12 H     1.0000    0     1.008    1.489242   -6.226231    0.000000
  13 H     1.0000    0     1.008   -1.782979    5.930841    1.658163

--------------------------------
INTERNAL COORDINATES (ANGSTROEM)
--------------------------------
 C      0   0   0     0.000000000000     0.00000000     0.00000000
 C      1   0   0     1.440682480301     0.00000000     0.00000000
 C      2   1   0     1.315572956347    62.68649601     0.00000000
 C      1   2   3     1.326096979279   152.62151655   180.00000000
 C      3   2   1     1.471356828585   149.96112568   180.00000000
 C      4   1   2     1.501881037046   123.91312031     0.00000000
 H      2   1   3     1.075615715826   149.35481433   180.00000000
 H      4   1   2     1.083770826185   118.33379608   180.00000000
 H      5   3   2     1.092157888604   109.96082521   121.38605489
 H      5   3   2     1.092157888604   109.96082521   238.61394511
 H      6   4   1     1.090862068983   110.95632333     0.00000000
 H      6   4   1     1.094273873514   111.95731780   120.16507800
 H      5   3   2     1.088940966584   111.86298874     0.00000000
 H      6   4   1     1.094273873514   111.95731780   239.83492200

---------------------------
INTERNAL COORDINATES (A.U.)
---------------------------
 C      0   0   0     0.000000000000     0.00000000     0.00000000
 C      1   0   0     2.722495333707     0.00000000     0.00000000
 C      2   1   0     2.486072596689    62.68649601     0.00000000
 C      1   2   3     2.505960117857   152.62151655   180.00000000
 C      3   2   1     2.780461451300   149.96112568   180.00000000
 C      4   1   2     2.838143845746   123.91312031     0.00000000
 H      2   1   3     2.032619128253   149.35481433   180.00000000
 H      4   1   2     2.048030053423   118.33379608   180.00000000
 H      5   3   2     2.063879304464   109.96082521   121.38605489
 H      5   3   2     2.063879304464   109.96082521   238.61394511
 H      6   4   1     2.061430560260   110.95632333     0.00000000
 H      6   4   1     2.067877936446   111.95731780   120.16507800
 H      5   3   2     2.057800202852   111.86298874     0.00000000
 H      6   4   1     2.067877936446   111.95731780   239.83492200

---------------------
BASIS SET INFORMATION
---------------------
There are 2 groups of distinct atoms

 Group   1 Type C   : 8s4p1d contracted to 4s2p1d pattern {5111/31/1}
 Group   2 Type H   : 4s contracted to 2s pattern {31}

Atom   0C    basis set group =>   1
Atom   1C    basis set group =>   1
Atom   2C    basis set group =>   1
Atom   3C    basis set group =>   1
Atom   4C    basis set group =>   1
Atom   5C    basis set group =>   1
Atom   6H    basis set group =>   2
Atom   7H    basis set group =>   2
Atom   8H    basis set group =>   2
Atom   9H    basis set group =>   2
Atom  10H    basis set group =>   2
Atom  11H    basis set group =>   2
Atom  12H    basis set group =>   2
Atom  13H    basis set group =>   2
---------------------------------
AUXILIARY/J BASIS SET INFORMATION
---------------------------------
There are 2 groups of distinct atoms

 Group   1 Type C   : 12s5p4d2f1g contracted to 6s4p3d1f1g pattern {711111/2111/211/2/1}
 Group   2 Type H   : 5s2p1d contracted to 3s1p1d pattern {311/2/1}

Atom   0C    basis set group =>   1
Atom   1C    basis set group =>   1
Atom   2C    basis set group =>   1
Atom   3C    basis set group =>   1
Atom   4C    basis set group =>   1
Atom   5C    basis set group =>   1
Atom   6H    basis set group =>   2
Atom   7H    basis set group =>   2
Atom   8H    basis set group =>   2
Atom   9H    basis set group =>   2
Atom  10H    basis set group =>   2
Atom  11H    basis set group =>   2
Atom  12H    basis set group =>   2
Atom  13H    basis set group =>   2


           ************************************************************
           *        Program running with 4 parallel MPI-processes     *
           *              working on a common directory               *
           ************************************************************
------------------------------------------------------------------------------
                           ORCA GTO INTEGRAL CALCULATION
                           -- RI-GTO INTEGRALS CHOSEN --
------------------------------------------------------------------------------
------------------------------------------------------------------------------
                   ___                                                        
                  /   \      - P O W E R E D   B Y -                         
                 /     \                                                     
                 |  |  |   _    _      __       _____    __    __             
                 |  |  |  | |  | |    /  \     |  _  \  |  |  /  |          
                  \  \/   | |  | |   /    \    | | | |  |  | /  /          
                 / \  \   | |__| |  /  /\  \   | |_| |  |  |/  /          
                |  |  |   |  __  | /  /__\  \  |    /   |      \           
                |  |  |   | |  | | |   __   |  |    \   |  |\   \          
                \     /   | |  | | |  |  |  |  | |\  \  |  | \   \       
                 \___/    |_|  |_| |__|  |__|  |_| \__\ |__|  \__/        
                                                                              
                      - O R C A' S   B I G   F R I E N D -                    
                                      &                                       
                       - I N T E G R A L  F E E D E R -                       
                                                                              
 v1 FN, 2020, v2 2021                                                         
------------------------------------------------------------------------------


Reading SHARK input file pbeh-3c.SHARKINP.tmp ... ok
----------------------
SHARK INTEGRAL PACKAGE
----------------------

Number of atoms                             ...     14
Number of basis functions                   ...    106
Number of shells                            ...     58
Maximum angular momentum                    ...      2
Integral batch strategy                     ... SHARK/LIBINT Hybrid
RI-J (if used) integral strategy            ... SPLIT-RIJ (Revised 2003 algorithm where possible)
Printlevel                                  ...      1
Contraction scheme used                     ... SEGMENTED contraction
Coulomb Range Separation                    ... NOT USED
Exchange Range Separation                   ... NOT USED
Finite Nucleus Model                        ... NOT USED
Auxiliary Coulomb fitting basis             ... AVAILABLE
   # of basis functions in Aux-J            ...    382
   # of shells in Aux-J                     ...    130
   Maximum angular momentum in Aux-J        ...      4
Auxiliary J/K fitting basis                 ... NOT available
Auxiliary Correlation fitting basis         ... NOT available
Auxiliary 'external' fitting basis          ... NOT available
Integral threshold                          ...     2.500000e-11
Primitive cut-off                           ...     2.500000e-12
Primitive pair pre-selection threshold      ...     2.500000e-12

Calculating pre-screening integrals         ... done (  0.0 sec) Dimension = 58
Organizing shell pair data                  ... done (  0.4 sec)
Shell pair information
Total number of shell pairs                 ...      1711
Shell pairs after pre-screening             ...      1567
Total number of primitive shell pairs       ...      6207
Primitive shell pairs kept                  ...      4165
          la=0 lb=0:    715 shell pairs
          la=1 lb=0:    466 shell pairs
          la=1 lb=1:     78 shell pairs
          la=2 lb=0:    218 shell pairs
          la=2 lb=1:     70 shell pairs
          la=2 lb=2:     20 shell pairs

Calculating one electron integrals          ... done (  0.0 sec)
Calculating RI/J V-Matrix + Cholesky decomp.... done (  0.3 sec)
Calculating Nuclear repulsion               ... done (  0.0 sec) ENN=    202.388541384127 Eh

SHARK setup successfully completed in   1.4 seconds

Maximum memory used throughout the entire GTOINT-calculation: 10.3 MB


           ************************************************************
           *        Program running with 4 parallel MPI-processes     *
           *              working on a common directory               *
           ************************************************************
-------------------------------------------------------------------------------
                                 ORCA SCF
-------------------------------------------------------------------------------

------------
SCF SETTINGS
------------
Hamiltonian:
 Density Functional     Method          .... DFT(GTOs)
 Exchange Functional    Exchange        .... PBE
   PBE kappa parameter   XKappa         ....  1.024500
   PBE mue parameter    XMuePBE         ....  0.123457
 Correlation Functional Correlation     .... PBE
   PBE beta parameter  CBetaPBE         ....  0.030000
 LDA part of GGA corr.  LDAOpt          .... PW91-LDA
 Gradients option       PostSCFGGA      .... off
 Hybrid DFT is turned on
   Fraction HF Exchange ScalHFX         ....  0.420000
   Scaling of DF-GGA-X  ScalDFX         ....  0.580000
   Scaling of DF-GGA-C  ScalDFC         ....  1.000000
   Scaling of DF-LDA-C  ScalLDAC        ....  1.000000
   Perturbative correction              ....  0.000000
   Density functional embedding theory  .... OFF
 RI-approximation to the Coulomb term is turned on
   Number of AuxJ basis functions       .... 382
   RIJ-ON(X) (HFX calculated with O(N)) .... on
   Number of AuxJ basis functions       .... 382
   RIJ-COSX (HFX calculated with COS-X)).... on


General Settings:
 Integral files         IntName         .... pbeh-3c
 Hartree-Fock type      HFTyp           .... RHF
 Total Charge           Charge          ....    0
 Multiplicity           Mult            ....    1
 Number of Electrons    NEL             ....   44
 Basis Dimension        Dim             ....  106
 Nuclear Repulsion      ENuc            ....    202.3885413841 Eh

Convergence Acceleration:
 DIIS                   CNVDIIS         .... on
   Start iteration      DIISMaxIt       ....    12
   Startup error        DIISStart       ....  0.200000
   # of expansion vecs  DIISMaxEq       ....     5
   Bias factor          DIISBfac        ....   1.050
   Max. coefficient     DIISMaxC        ....  10.000
 Trust-Rad. Augm. Hess. CNVTRAH         .... auto
   Auto Start mean grad. ratio tolernc. ....  1.125000
   Auto Start start iteration           ....    20
   Auto Start num. interpolation iter.  ....    10
   Max. Number of Micro iterations      ....    16
   Max. Number of Macro iterations      .... Maxiter - #DIIS iter
   Number of Davidson start vectors     ....     2
   Converg. threshold I  (grad. norm)   ....   1.000e-05
   Converg. threshold II (energy diff.) ....   1.000e-08
   Grad. Scal. Fac. for Micro threshold ....   0.100
   Minimum threshold for Micro iter.    ....   0.010
   NR start threshold (gradient norm)   ....   0.001
   Initial trust radius                 ....   0.400
   Minimum AH scaling param. (alpha)    ....   1.000
   Maximum AH scaling param. (alpha)    .... 1000.000
   Orbital update algorithm             .... Taylor
   White noise on init. David. guess    .... on
   Maximum white noise                  ....   0.010
   Quad. conv. algorithm                .... NR
   COSX micro iterations for RIJONX calc.... off
 SOSCF                  CNVSOSCF        .... on
   Start iteration      SOSCFMaxIt      ....   150
   Startup grad/error   SOSCFStart      ....  0.003300
 Level Shifting         CNVShift        .... on
   Level shift para.    LevelShift      ....    0.2500
   Turn off err/grad.   ShiftErr        ....    0.0010
 Zerner damping         CNVZerner       .... off
 Static damping         CNVDamp         .... on
   Fraction old density DampFac         ....    0.7000
   Max. Damping (<1)    DampMax         ....    0.9800
   Min. Damping (>=0)   DampMin         ....    0.0000
   Turn off err/grad.   DampErr         ....    0.1000
 Fernandez-Rico         CNVRico         .... off

SCF Procedure:
 Maximum # iterations   MaxIter         ....   125
 SCF integral mode      SCFMode         .... Direct
   Integral package                     .... SHARK and LIBINT hybrid scheme
 Reset frequency        DirectResetFreq ....    20
 Integral Threshold     Thresh          ....  2.500e-11 Eh
 Primitive CutOff       TCut            ....  2.500e-12 Eh

Convergence Tolerance:
 Convergence Check Mode ConvCheckMode   .... Total+1el-Energy
 Convergence forced     ConvForced      .... 0
 Energy Change          TolE            ....  1.000e-08 Eh
 1-El. energy change                    ....  1.000e-05 Eh
 Orbital Gradient       TolG            ....  1.000e-05
 Orbital Rotation angle TolX            ....  1.000e-05
 DIIS Error             TolErr          ....  5.000e-07


Diagonalization of the overlap matrix:
Smallest eigenvalue                        ... 1.163e-03
Time for diagonalization                   ...    0.004 sec
Threshold for overlap eigenvalues          ... 1.000e-08
Number of eigenvalues below threshold      ... 0
Time for construction of square roots      ...    0.070 sec
Total time needed                          ...    0.074 sec

--------------------------------
INITIAL GUESS: MINIMAL BASIS EHT
--------------------------------
The minimal basis has 38 functions
EHT matrix was diagonalized
Basis set overlap was calculated now projecting the orbitals
Using GuessMode=FMatrix for the initial guess
C*T matrix was formed
Effective Fockian was calculated
Effective Fockian was diagonalized
Initial density was built
                      ------------------
                      INITIAL GUESS DONE
                      ------------------
-------------------
DFT GRID GENERATION
-------------------

General Integration Accuracy     IntAcc      ... 4.959
Radial Grid Type                 RadialGrid  ... OptM3 with GC (2021)
Angular Grid (max. ang.)         AngularGrid ... 6 (Lebedev-590)
Angular grid pruning method      GridPruning ... 4 (adaptive)
Weight generation scheme         WeightScheme... Becke
Basis function cutoff            BFCut       ... 1.0000e-11
Integration weight cutoff        WCut        ... 1.0000e-14
Angular grids for H and He will be reduced by one unit
Partially contracted basis set               ... off
Rotationally invariant grid construction     ... off

Total number of grid points                  ...   156656
Total number of batches                      ...     2455
Average number of points per batch           ...       63
Average number of grid points per atom       ...    11190
Time for grid setup =    2.603 sec

--------------------
COSX GRID GENERATION
--------------------

GRIDX 1
-------
General Integration Accuracy     IntAcc      ... 4.020
Radial Grid Type                 RadialGrid  ... OptM3 with GC (2021)
Angular Grid (max. ang.)         AngularGrid ... 2 (Lebedev-110)
Angular grid pruning method      GridPruning ... 4 (adaptive)
Weight generation scheme         WeightScheme... Becke
Basis function cutoff            BFCut       ... 1.0000e-11
Integration weight cutoff        WCut        ... 1.0000e-14
Angular grids for H and He will be reduced by one unit
Partially contracted basis set               ... on
Rotationally invariant grid construction     ... off

Total number of grid points                  ...    17120
Total number of batches                      ...      274
Average number of points per batch           ...       62
Average number of grid points per atom       ...     1223
UseSFitting                                  ... on

GRIDX 2
-------
General Integration Accuracy     IntAcc      ... 4.338
Radial Grid Type                 RadialGrid  ... OptM3 with GC (2021)
Angular Grid (max. ang.)         AngularGrid ... 3 (Lebedev-194)
Angular grid pruning method      GridPruning ... 4 (adaptive)
Weight generation scheme         WeightScheme... Becke
Basis function cutoff            BFCut       ... 1.0000e-11
Integration weight cutoff        WCut        ... 1.0000e-14
Angular grids for H and He will be reduced by one unit
Partially contracted basis set               ... on
Rotationally invariant grid construction     ... off

Total number of grid points                  ...    37549
Total number of batches                      ...      593
Average number of points per batch           ...       63
Average number of grid points per atom       ...     2682
UseSFitting                                  ... on

GRIDX 3
-------
General Integration Accuracy     IntAcc      ... 4.871
Radial Grid Type                 RadialGrid  ... OptM3 with GC (2021)
Angular Grid (max. ang.)         AngularGrid ... 4 (Lebedev-302)
Angular grid pruning method      GridPruning ... 4 (adaptive)
Weight generation scheme         WeightScheme... Becke
Basis function cutoff            BFCut       ... 1.0000e-11
Integration weight cutoff        WCut        ... 1.0000e-14
Angular grids for H and He will be reduced by one unit
Partially contracted basis set               ... on
Rotationally invariant grid construction     ... off

Total number of grid points                  ...    73144
Total number of batches                      ...     1150
Average number of points per batch           ...       63
Average number of grid points per atom       ...     5225
UseSFitting                                  ... on

Time for X-Grid setup             =    2.449 sec

--------------
SCF ITERATIONS
--------------
ITER       Energy         Delta-E        Max-DP      RMS-DP      [F,P]     Damp
               ***  Starting incremental Fock matrix formation  ***
  0   -232.1904709284   0.000000000000 0.13605818  0.00645103  0.4221997 0.7000
  1   -232.3801424497  -0.189671521259 0.09816171  0.00467715  0.2970789 0.7000
  2   -232.5113512507  -0.131208801071 0.06854629  0.00343310  0.2101266 0.7000
                               ***Turning on DIIS***
  3   -232.6041203237  -0.092769073017 0.05443109  0.00254771  0.1484503 0.7000
  4   -232.6701538923  -0.066033568601 0.04520578  0.00199137  0.1047273 0.7000
  5   -232.7170100817  -0.046856189380 0.11358247  0.00495537  0.0733916 0.0000
                      *** Initiating the SOSCF procedure ***
                           *** Shutting down DIIS ***
                      *** Re-Reading the Fockian *** 
                      *** Removing any level shift *** 
ITER      Energy       Delta-E        Grad      Rot      Max-DP    RMS-DP
  6   -232.82875481  -0.1117447265  0.001485  0.001485  0.004153  0.000174
               *** Restarting incremental Fock matrix formation ***
  7   -232.82880523  -0.0000504236  0.000472  0.000763  0.001390  0.000098
  8   -232.82881091  -0.0000056739  0.000471  0.000860  0.001537  0.000038
  9   -232.82881281  -0.0000019036  0.000150  0.000226  0.000510  0.000018
 10   -232.82881316  -0.0000003515  0.000029  0.000036  0.000091  0.000003
 11   -232.82881317  -0.0000000126  0.000017  0.000015  0.000038  0.000002
 12   -232.82881318  -0.0000000069  0.000003  0.000007  0.000009  0.000000
 13   -232.82881318  -0.0000000014  0.000003  0.000004  0.000005  0.000000
                  ***Gradient check signals convergence***
              ***Rediagonalizing the Fockian in SOSCF/NRSCF***

               *****************************************************
               *                     SUCCESS                       *
               *           SCF CONVERGED AFTER  14 CYCLES          *
               *****************************************************

Old exchange energy                            =    -14.233144591 Eh
New exchange energy                            =    -14.233157957 Eh
Exchange energy change after final integration =     -0.000013366 Eh
Total energy after final integration           =   -232.828826546 Eh
Final COS-X integration done in                =     2.892 sec

----------------
TOTAL SCF ENERGY
----------------

Total Energy       :         -232.82882655 Eh           -6335.59447 eV

Components:
Nuclear Repulsion  :          202.38854138 Eh            5507.27220 eV
Electronic Energy  :         -435.21736793 Eh          -11842.86666 eV
One Electron Energy:         -712.78799434 Eh          -19395.94740 eV
Two Electron Energy:          277.57062641 Eh            7553.08074 eV
Max COSX asymmetry :            0.00000145 Eh               0.00004 eV

Virial components:
Potential Energy   :         -463.76752455 Eh          -12619.75592 eV
Kinetic Energy     :          230.93869800 Eh            6284.16145 eV
Virial Ratio       :            2.00818455


DFT components:
N(Alpha)           :       21.999999259642 electrons
N(Beta)            :       21.999999259642 electrons
N(Total)           :       43.999998519284 electrons
E(X)               :      -18.886038305856 Eh       
E(C)               :       -1.870048560702 Eh       
E(XC)              :      -20.756086866559 Eh       
DFET-embed. en.    :        0.000000000000 Eh       

---------------
SCF CONVERGENCE
---------------

  Last Energy change         ...    2.1439e-09  Tolerance :   1.0000e-08
  Last MAX-Density change    ...    1.3323e-15  Tolerance :   1.0000e-07
  Last RMS-Density change    ...    4.5106e-17  Tolerance :   5.0000e-09
  Last Orbital Gradient      ...    3.5680e-07  Tolerance :   1.0000e-05
  Last Orbital Rotation      ...    6.9191e-07  Tolerance :   1.0000e-05

             **** THE GBW FILE WAS UPDATED (pbeh-3c.gbw) ****
             **** DENSITY pbeh-3c.scfp WAS UPDATED ****
             **** ENERGY FILE WAS UPDATED (pbeh-3c.en.tmp) ****
             **** THE GBW FILE WAS UPDATED (pbeh-3c.gbw) ****
             **** DENSITY pbeh-3c.scfp WAS UPDATED ****
----------------
ORBITAL ENERGIES
----------------

  NO   OCC          E(Eh)            E(eV) 
   0   2.0000     -10.485309      -285.3198 
   1   2.0000     -10.470939      -284.9287 
   2   2.0000     -10.460035      -284.6320 
   3   2.0000     -10.457769      -284.5704 
   4   2.0000     -10.410822      -283.2929 
   5   2.0000     -10.405904      -283.1590 
   6   2.0000      -1.002375       -27.2760 
   7   2.0000      -0.842496       -22.9255 
   8   2.0000      -0.824835       -22.4449 
   9   2.0000      -0.715481       -19.4692 
  10   2.0000      -0.634034       -17.2530 
  11   2.0000      -0.574550       -15.6343 
  12   2.0000      -0.526065       -14.3149 
  13   2.0000      -0.504052       -13.7160 
  14   2.0000      -0.499084       -13.5808 
  15   2.0000      -0.453044       -12.3280 
  16   2.0000      -0.445831       -12.1317 
  17   2.0000      -0.416718       -11.3395 
  18   2.0000      -0.401245       -10.9184 
  19   2.0000      -0.391531       -10.6541 
  20   2.0000      -0.338301        -9.2056 
  21   2.0000      -0.224870        -6.1190 
  22   0.0000       0.029211         0.7949 
  23   0.0000       0.107491         2.9250 
  24   0.0000       0.153956         4.1894 
  25   0.0000       0.167327         4.5532 
  26   0.0000       0.173318         4.7162 
  27   0.0000       0.187391         5.0992 
  28   0.0000       0.219930         5.9846 
  29   0.0000       0.221275         6.0212 
  30   0.0000       0.228481         6.2173 
  31   0.0000       0.232621         6.3300 
  32   0.0000       0.241867         6.5815 
  33   0.0000       0.247357         6.7309 
  34   0.0000       0.293436         7.9848 
  35   0.0000       0.348342         9.4789 
  36   0.0000       0.371796        10.1171 
  37   0.0000       0.424236        11.5440 
  38   0.0000       0.447789        12.1849 
  39   0.0000       0.481569        13.1042 
  40   0.0000       0.494509        13.4563 
  41   0.0000       0.545852        14.8534 
  42   0.0000       0.552338        15.0299 
  43   0.0000       0.587534        15.9876 
  44   0.0000       0.590167        16.0593 
  45   0.0000       0.613069        16.6825 
  46   0.0000       0.618959        16.8427 
  47   0.0000       0.628210        17.0945 
  48   0.0000       0.690459        18.7883 
  49   0.0000       0.700043        19.0491 
  50   0.0000       0.737724        20.0745 
  51   0.0000       0.744411        20.2565 
  52   0.0000       0.802778        21.8447 
  53   0.0000       0.809414        22.0253 
  54   0.0000       0.882439        24.0124 
  55   0.0000       0.953348        25.9419 
  56   0.0000       0.982224        26.7277 
  57   0.0000       1.009128        27.4598 
  58   0.0000       1.019014        27.7288 
  59   0.0000       1.034344        28.1459 
  60   0.0000       1.041317        28.3357 
  61   0.0000       1.063746        28.9460 
  62   0.0000       1.088862        29.6295 
  63   0.0000       1.119722        30.4692 
  64   0.0000       1.137392        30.9500 
  65   0.0000       1.217752        33.1367 
  66   0.0000       1.260254        34.2932 
  67   0.0000       1.301120        35.4053 
  68   0.0000       1.317833        35.8601 
  69   0.0000       1.361433        37.0465 
  70   0.0000       1.451122        39.4870 
  71   0.0000       1.457673        39.6653 
  72   0.0000       1.535263        41.7766 
  73   0.0000       1.638577        44.5879 
  74   0.0000       1.712522        46.6001 
  75   0.0000       1.731761        47.1236 
  76   0.0000       1.862427        50.6792 
  77   0.0000       1.869112        50.8611 
  78   0.0000       1.884366        51.2762 
  79   0.0000       1.956327        53.2344 
  80   0.0000       2.035896        55.3995 
  81   0.0000       2.071185        56.3598 
  82   0.0000       2.100399        57.1548 
  83   0.0000       2.105427        57.2916 
  84   0.0000       2.182605        59.3917 
  85   0.0000       2.210794        60.1588 
  86   0.0000       2.248311        61.1797 
  87   0.0000       2.323719        63.2316 
  88   0.0000       2.332903        63.4815 
  89   0.0000       2.354150        64.0597 
  90   0.0000       2.438720        66.3609 
  91   0.0000       2.491483        67.7967 
  92   0.0000       2.590579        70.4933 
  93   0.0000       2.593979        70.5858 
  94   0.0000       2.644274        71.9543 
  95   0.0000       2.765285        75.2472 
  96   0.0000       2.770075        75.3776 
  97   0.0000       3.160026        85.9887 
  98   0.0000       3.275571        89.1328 
  99   0.0000       3.300603        89.8140 
 100   0.0000      13.196213       359.0872 
 101   0.0000      13.731035       373.6405 
 102   0.0000      13.821419       376.0999 
 103   0.0000      13.919107       378.7581 
 104   0.0000      14.342409       390.2768 
 105   0.0000      14.450199       393.2099 

                    ********************************
                    * MULLIKEN POPULATION ANALYSIS *
                    ********************************

-----------------------
MULLIKEN ATOMIC CHARGES
-----------------------
   0 C :    0.223397
   1 C :   -0.290675
   2 C :    0.144399
   3 C :   -0.409814
   4 C :   -0.771405
   5 C :   -0.674797
   6 H :    0.215716
   7 H :    0.192128
   8 H :    0.249934
   9 H :    0.249934
  10 H :    0.212040
  11 H :    0.209399
  12 H :    0.240347
  13 H :    0.209399
Sum of atomic charges:   -0.0000000

--------------------------------
MULLIKEN REDUCED ORBITAL CHARGES
--------------------------------
  0 C s       :     3.154088  s :     3.154088
      pz      :     0.979360  p :     2.561425
      px      :     0.788996
      py      :     0.793069
      dz2     :     0.003257  d :     0.061091
      dxz     :     0.012027
      dyz     :     0.013184
      dx2y2   :     0.021040
      dxy     :     0.011583
  1 C s       :     3.351305  s :     3.351305
      pz      :     0.930340  p :     2.891831
      px      :     0.919749
      py      :     1.041742
      dz2     :     0.003744  d :     0.047539
      dxz     :     0.009040
      dyz     :     0.003327
      dx2y2   :     0.017955
      dxy     :     0.013472
  2 C s       :     3.216599  s :     3.216599
      pz      :     0.871553  p :     2.580787
      px      :     0.985342
      py      :     0.723892
      dz2     :     0.003269  d :     0.058215
      dxz     :     0.005229
      dyz     :     0.013070
      dx2y2   :     0.018320
      dxy     :     0.018328
  3 C s       :     3.301027  s :     3.301027
      pz      :     1.171948  p :     3.068760
      px      :     1.019607
      py      :     0.877205
      dz2     :     0.003854  d :     0.040027
      dxz     :     0.002598
      dyz     :     0.006681
      dx2y2   :     0.014803
      dxy     :     0.012092
  4 C s       :     3.445720  s :     3.445720
      pz      :     1.155542  p :     3.288345
      px      :     1.146313
      py      :     0.986490
      dz2     :     0.007285  d :     0.037341
      dxz     :     0.009919
      dyz     :     0.003207
      dx2y2   :     0.006610
      dxy     :     0.010321
  5 C s       :     3.390362  s :     3.390362
      pz      :     1.119918  p :     3.245743
      px      :     1.129387
      py      :     0.996439
      dz2     :     0.006864  d :     0.038692
      dxz     :     0.003983
      dyz     :     0.012764
      dx2y2   :     0.010130
      dxy     :     0.004951
  6 H s       :     0.784284  s :     0.784284
  7 H s       :     0.807872  s :     0.807872
  8 H s       :     0.750066  s :     0.750066
  9 H s       :     0.750066  s :     0.750066
 10 H s       :     0.787960  s :     0.787960
 11 H s       :     0.790601  s :     0.790601
 12 H s       :     0.759653  s :     0.759653
 13 H s       :     0.790601  s :     0.790601


                     *******************************
                     * LOEWDIN POPULATION ANALYSIS *
                     *******************************

----------------------
LOEWDIN ATOMIC CHARGES
----------------------
   0 C :   -0.029522
   1 C :   -0.103208
   2 C :    0.012990
   3 C :   -0.272319
   4 C :   -0.357464
   5 C :   -0.350789
   6 H :    0.147600
   7 H :    0.126236
   8 H :    0.155201
   9 H :    0.155201
  10 H :    0.125998
  11 H :    0.122435
  12 H :    0.145206
  13 H :    0.122436

-------------------------------
LOEWDIN REDUCED ORBITAL CHARGES
-------------------------------
  0 C s       :     2.823733  s :     2.823733
      pz      :     0.960625  p :     3.061992
      px      :     1.052748
      py      :     1.048619
      dz2     :     0.009154  d :     0.143797
      dxz     :     0.023875
      dyz     :     0.026418
      dx2y2   :     0.050384
      dxy     :     0.033966
  1 C s       :     2.902887  s :     2.902887
      pz      :     0.924554  p :     3.101007
      px      :     1.051565
      py      :     1.124888
      dz2     :     0.008508  d :     0.099314
      dxz     :     0.013118
      dyz     :     0.006301
      dx2y2   :     0.041643
      dxy     :     0.029745
  2 C s       :     2.839669  s :     2.839669
      pz      :     0.854612  p :     3.017137
      px      :     1.123202
      py      :     1.039323
      dz2     :     0.009083  d :     0.130204
      dxz     :     0.009915
      dyz     :     0.022165
      dx2y2   :     0.045722
      dxy     :     0.043319
  3 C s       :     2.886842  s :     2.886842
      pz      :     1.172230  p :     3.295843
      px      :     1.076848
      py      :     1.046765
      dz2     :     0.006492  d :     0.089634
      dxz     :     0.004196
      dyz     :     0.013279
      dx2y2   :     0.036324
      dxy     :     0.029343
  4 C s       :     2.941237  s :     2.941237
      pz      :     1.141580  p :     3.344707
      px      :     1.133715
      py      :     1.069412
      dz2     :     0.013014  d :     0.071521
      dxz     :     0.016372
      dyz     :     0.006868
      dx2y2   :     0.014625
      dxy     :     0.020642
  5 C s       :     2.944843  s :     2.944843
      pz      :     1.127398  p :     3.333356
      px      :     1.127519
      py      :     1.078439
      dz2     :     0.011872  d :     0.072590
      dxz     :     0.006236
      dyz     :     0.023974
      dx2y2   :     0.020071
      dxy     :     0.010436
  6 H s       :     0.852400  s :     0.852400
  7 H s       :     0.873764  s :     0.873764
  8 H s       :     0.844799  s :     0.844799
  9 H s       :     0.844799  s :     0.844799
 10 H s       :     0.874002  s :     0.874002
 11 H s       :     0.877565  s :     0.877565
 12 H s       :     0.854794  s :     0.854794
 13 H s       :     0.877564  s :     0.877564


                      *****************************
                      * MAYER POPULATION ANALYSIS *
                      *****************************

  NA   - Mulliken gross atomic population
  ZA   - Total nuclear charge
  QA   - Mulliken gross atomic charge
  VA   - Mayer's total valence
  BVA  - Mayer's bonded valence
  FA   - Mayer's free valence

  ATOM       NA         ZA         QA         VA         BVA        FA
  0 C      5.7766     6.0000     0.2234     3.6746     3.6746    -0.0000
  1 C      6.2907     6.0000    -0.2907     3.6670     3.6670     0.0000
  2 C      5.8556     6.0000     0.1444     3.5811     3.5811    -0.0000
  3 C      6.4098     6.0000    -0.4098     3.7053     3.7053    -0.0000
  4 C      6.7714     6.0000    -0.7714     3.6849     3.6849    -0.0000
  5 C      6.6748     6.0000    -0.6748     3.7630     3.7630     0.0000
  6 H      0.7843     1.0000     0.2157     0.9347     0.9347     0.0000
  7 H      0.8079     1.0000     0.1921     0.9288     0.9288     0.0000
  8 H      0.7501     1.0000     0.2499     0.8994     0.8994     0.0000
  9 H      0.7501     1.0000     0.2499     0.8994     0.8994    -0.0000
 10 H      0.7880     1.0000     0.2120     0.9176     0.9176    -0.0000
 11 H      0.7906     1.0000     0.2094     0.9086     0.9086    -0.0000
 12 H      0.7597     1.0000     0.2403     0.9047     0.9047    -0.0000
 13 H      0.7906     1.0000     0.2094     0.9086     0.9086    -0.0000

  Mayer bond orders larger than 0.100000
B(  0-C ,  1-C ) :   0.9668 B(  0-C ,  2-C ) :   0.9356 B(  0-C ,  3-C ) :   1.7741 
B(  1-C ,  2-C ) :   1.6895 B(  1-C ,  6-H ) :   0.9256 B(  2-C ,  4-C ) :   0.9757 
B(  3-C ,  5-C ) :   0.9989 B(  3-C ,  7-H ) :   0.9255 B(  4-C ,  8-H ) :   0.9092 
B(  4-C ,  9-H ) :   0.9092 B(  4-C , 12-H ) :   0.9206 B(  5-C , 10-H ) :   0.9381 
B(  5-C , 11-H ) :   0.9242 B(  5-C , 13-H ) :   0.9242 

-------
TIMINGS
-------

Total SCF time: 0 days 0 hours 1 min 1 sec 

Total time                  ....      61.948 sec
Sum of individual times     ....      55.783 sec  ( 90.0%)

Fock matrix formation       ....      47.041 sec  ( 75.9%)
  Split-RI-J                ....       5.118 sec  ( 10.9% of F)
  Chain of spheres X        ....      19.212 sec  ( 40.8% of F)
  XC integration            ....      13.007 sec  ( 27.7% of F)
    Basis function eval.    ....       2.567 sec  ( 19.7% of XC)
    Density eval.           ....       1.380 sec  ( 10.6% of XC)
    XC-Functional eval.     ....       1.206 sec  (  9.3% of XC)
    XC-Potential eval.      ....       0.765 sec  (  5.9% of XC)
Diagonalization             ....       0.142 sec  (  0.2%)
Density matrix formation    ....       0.031 sec  (  0.0%)
Population analysis         ....       1.133 sec  (  1.8%)
Initial guess               ....       0.069 sec  (  0.1%)
Orbital Transformation      ....       0.000 sec  (  0.0%)
Orbital Orthonormalization  ....       0.000 sec  (  0.0%)
DIIS solution               ....       0.538 sec  (  0.9%)
SOSCF solution              ....       1.777 sec  (  2.9%)
Grid generation             ....       5.053 sec  (  8.2%)

Maximum memory used throughout the entire SCF-calculation: 51.7 MB


-------------------------------------------------------------------------------
                          DFT DISPERSION CORRECTION                            
                                                                               
                              DFTD3 V3.1  Rev 1                                
                          USING Becke-Johnson damping                          
-------------------------------------------------------------------------------
The PBEh-3c composite method is recognized
Using three-body term ABC
Active option DFTDOPT                   ...         4   

molecular C6(AA) [au] = 1832.616920 


            DFT-D V3
 parameters
 s6 scaling factor         :     1.0000 
 a1 scaling factor         :     0.4860 
 s8 scaling factor         :     0.0000 
 a2 scaling factor         :     4.5000 
 Damping factor alpha9(ATM):    16.0000 
 ad hoc parameters k1-k3   :    16.0000     1.3333    -4.0000 

 Edisp/kcal,au: -3.554486504104  -0.005664434199 
 E6   /kcal   :  -3.555805359 
 E8   /kcal   :  -0.000000000 
 E6(ABC)      :   0.001318855 
 % E8         :   0.000000000 
 % E6(ABC)    :  -0.037103939 

-------------------------   ----------------
Dispersion correction           -0.005664434
-------------------------   ----------------

------------------   -----------------
gCP correction             0.012979642
------------------   -----------------

-------------------------   --------------------
FINAL SINGLE POINT ENERGY      -232.821511338071
-------------------------   --------------------


                            ***************************************
                            *     ORCA property calculations      *
                            ***************************************

                                    ---------------------
                                    Active property flags
                                    ---------------------
   (+) Dipole Moment


------------------------------------------------------------------------------
                       ORCA ELECTRIC PROPERTIES CALCULATION
------------------------------------------------------------------------------

Dipole Moment Calculation                       ... on
Quadrupole Moment Calculation                   ... off
Polarizability Calculation                      ... off
GBWName                                         ... pbeh-3c.gbw
Electron density                                ... pbeh-3c.scfp
The origin for moment calculation is the CENTER OF MASS  = ( 0.034013, -0.021566  0.000000)

-------------
DIPOLE MOMENT
-------------
                                X             Y             Z
Electronic contribution:      1.87533      -1.76535      -0.00000
Nuclear contribution   :     -1.49659       0.94892       0.00000
                        -----------------------------------------
Total Dipole Moment    :      0.37874      -0.81643      -0.00000
                        -----------------------------------------
Magnitude (a.u.)       :      0.90000
Magnitude (Debye)      :      2.28763



--------------------
Rotational spectrum 
--------------------
 
Rotational constants in cm-1:     0.379832     0.063277     0.055345 
Rotational constants in MHz : 11387.068007  1896.985093  1659.196216 

 Dipole components along the rotational axes: 
x,y,z [a.u.] :     0.875963    -0.206633    -0.000000 
x,y,z [Debye]:     2.226520    -0.525218    -0.000000 

 

Timings for individual modules:

Sum of individual times         ...       64.703 sec (=   1.078 min)
GTO integral calculation        ...        1.740 sec (=   0.029 min)   2.7 %
SCF iterations                  ...       62.962 sec (=   1.049 min)  97.3 %
                             ****ORCA TERMINATED NORMALLY****
TOTAL RUN TIME: 0 days 0 hours 1 minutes 5 seconds 816 msec
