
                                 *****************
                                 * O   R   C   A *
                                 *****************

                                            #,                                       
                                            ###                                      
                                            ####                                     
                                            #####                                    
                                            ######                                   
                                           ########,                                 
                                     ,,################,,,,,                         
                               ,,#################################,,                 
                          ,,##########################################,,             
                       ,#########################################, ''#####,          
                    ,#############################################,,   '####,        
                  ,##################################################,,,,####,       
                ,###########''''           ''''###############################       
              ,#####''   ,,,,##########,,,,          '''####'''          '####       
            ,##' ,,,,###########################,,,                        '##       
           ' ,,###''''                  '''############,,,                           
         ,,##''                                '''############,,,,        ,,,,,,###''
      ,#''                                            '''#######################'''  
     '                                                          ''''####''''         
             ,#######,   #######,   ,#######,      ##                                
            ,#'     '#,  ##    ##  ,#'     '#,    #''#        ######   ,####,        
            ##       ##  ##   ,#'  ##            #'  '#       #        #'  '#        
            ##       ##  #######   ##           ,######,      #####,   #    #        
            '#,     ,#'  ##    ##  '#,     ,#' ,#      #,         ##   #,  ,#        
             '#######'   ##     ##  '#######'  #'      '#     #####' # '####'        



                  #######################################################
                  #                        -***-                        #
                  #          Department of theory and spectroscopy      #
                  #    Directorship and core code : Frank Neese         #
                  #        Max Planck Institute fuer Kohlenforschung    #
                  #                Kaiser Wilhelm Platz 1               #
                  #                 D-45470 Muelheim/Ruhr               #
                  #                      Germany                        #
                  #                                                     #
                  #                  All rights reserved                #
                  #                        -***-                        #
                  #######################################################


                         Program Version 5.0.3 -  RELEASE  -


 With contributions from (in alphabetic order):
   Daniel Aravena         : Magnetic Suceptibility
   Michael Atanasov       : Ab Initio Ligand Field Theory (pilot matlab implementation)
   Alexander A. Auer      : GIAO ZORA, VPT2 properties, NMR spectrum
   Ute Becker             : Parallelization
   Giovanni Bistoni       : ED, misc. LED, open-shell LED, HFLD
   Martin Brehm           : Molecular dynamics
   Dmytro Bykov           : SCF Hessian
   Vijay G. Chilkuri      : MRCI spin determinant printing, contributions to CSF-ICE
   Dipayan Datta          : RHF DLPNO-CCSD density
   Achintya Kumar Dutta   : EOM-CC, STEOM-CC
   Dmitry Ganyushin       : Spin-Orbit,Spin-Spin,Magnetic field MRCI
   Miquel Garcia          : C-PCM and meta-GGA Hessian, CC/C-PCM, Gaussian charge scheme
   Yang Guo               : DLPNO-NEVPT2, F12-NEVPT2, CIM, IAO-localization
   Andreas Hansen         : Spin unrestricted coupled pair/coupled cluster methods
   Benjamin Helmich-Paris : MC-RPA, TRAH-SCF, COSX integrals
   Lee Huntington         : MR-EOM, pCC
   Robert Izsak           : Overlap fitted RIJCOSX, COSX-SCS-MP3, EOM
   Marcus Kettner         : VPT2
   Christian Kollmar      : KDIIS, OOCD, Brueckner-CCSD(T), CCSD density, CASPT2, CASPT2-K
   Simone Kossmann        : Meta GGA functionals, TD-DFT gradient, OOMP2, MP2 Hessian
   Martin Krupicka        : Initial AUTO-CI
   Lucas Lang             : DCDCAS
   Marvin Lechner         : AUTO-CI (C++ implementation), FIC-MRCC
   Dagmar Lenk            : GEPOL surface, SMD
   Dimitrios Liakos       : Extrapolation schemes; Compound Job, initial MDCI parallelization
   Dimitrios Manganas     : Further ROCIS development; embedding schemes
   Dimitrios Pantazis     : SARC Basis sets
   Anastasios Papadopoulos: AUTO-CI, single reference methods and gradients
   Taras Petrenko         : DFT Hessian,TD-DFT gradient, ASA, ECA, R-Raman, ABS, FL, XAS/XES, NRVS
   Peter Pinski           : DLPNO-MP2, DLPNO-MP2 Gradient
   Christoph Reimann      : Effective Core Potentials
   Marius Retegan         : Local ZFS, SOC
   Christoph Riplinger    : Optimizer, TS searches, QM/MM, DLPNO-CCSD(T), (RO)-DLPNO pert. Triples
   Tobias Risthaus        : Range-separated hybrids, TD-DFT gradient, RPA, STAB
   Michael Roemelt        : Original ROCIS implementation
   Masaaki Saitow         : Open-shell DLPNO-CCSD energy and density
   Barbara Sandhoefer     : DKH picture change effects
   Avijit Sen             : IP-ROCIS
   Kantharuban Sivalingam : CASSCF convergence, NEVPT2, FIC-MRCI
   Bernardo de Souza      : ESD, SOC TD-DFT
   Georgi Stoychev        : AutoAux, RI-MP2 NMR, DLPNO-MP2 response
   Willem Van den Heuvel  : Paramagnetic NMR
   Boris Wezisla          : Elementary symmetry handling
   Frank Wennmohs         : Technical directorship


 We gratefully acknowledge several colleagues who have allowed us to
 interface, adapt or use parts of their codes:
   Stefan Grimme, W. Hujo, H. Kruse, P. Pracht,  : VdW corrections, initial TS optimization,
                  C. Bannwarth, S. Ehlert          DFT functionals, gCP, sTDA/sTD-DF
   Ed Valeev, F. Pavosevic, A. Kumar             : LibInt (2-el integral package), F12 methods
   Garnet Chan, S. Sharma, J. Yang, R. Olivares  : DMRG
   Ulf Ekstrom                                   : XCFun DFT Library
   Mihaly Kallay                                 : mrcc  (arbitrary order and MRCC methods)
   Jiri Pittner, Ondrej Demel                    : Mk-CCSD
   Frank Weinhold                                : gennbo (NPA and NBO analysis)
   Christopher J. Cramer and Donald G. Truhlar   : smd solvation model
   Lars Goerigk                                  : TD-DFT with DH, B97 family of functionals
   V. Asgeirsson, H. Jonsson                     : NEB implementation
   FAccTs GmbH                                   : IRC, NEB, NEB-TS, DLPNO-Multilevel, CI-OPT
                                                   MM, QMMM, 2- and 3-layer-ONIOM, Crystal-QMMM,
                                                   LR-CPCM, SF, NACMEs, symmetry and pop. for TD-DFT,
                                                   nearIR, NL-DFT gradient (VV10), updates on ESD,
                                                   ML-optimized integration grids
   S Lehtola, MJT Oliveira, MAL Marques          : LibXC Library
   Liviu Ungur et al                             : ANISO software


 Your calculation uses the libint2 library for the computation of 2-el integrals
 For citations please refer to: http://libint.valeyev.net

 Your ORCA version has been built with support for libXC version: 5.1.0
 For citations please refer to: https://tddft.org/programs/libxc/

 This ORCA versions uses:
   CBLAS   interface :  Fast vector & matrix operations
   LAPACKE interface :  Fast linear algebra routines
   SCALAPACK package :  Parallel linear algebra routines
   Shared memory     :  Shared parallel matrices
   BLAS/LAPACK       :  OpenBLAS 0.3.15  USE64BITINT DYNAMIC_ARCH NO_AFFINITY Haswell SINGLE_THREADED
        Core in use  :  Haswell
   Copyright (c) 2011-2014, The OpenBLAS Project




***************************************
The coordinates will be read from file: 12.xyz
***************************************


Your calculation utilizes the geometrical counterpoise correction gCP
Please cite in your paper:
H.Kruse, S. Grimme J.Chem.Phys., 136, (2012), 154101 
   

Your calculation utilizes the atom-pairwise dispersion correction
with the Becke-Johnson damping scheme (D3BJ)
Cite in your paper:
S.Grimme, S.Ehrlich, L.Goerigk, J Comput Chem, (2011), 32, 1456–1465 
S.Grimme, J.Antony, S.Ehrlich and H.Krieg, J.Chem.Phys., 132, (2010), 154104 
   

Your calculation employs the composite approach PBEh-3c.
Please cite in your paper:
S. Grimme, J. G. Brandenburg, C. Bannwarth, A. Hansen J.Chem.Phys., 143, (2015), 054107 
   

================================================================================

----- Orbital basis set information -----
Your calculation utilizes the basis: def2-mSVP

----- AuxJ basis set information -----
Your calculation utilizes the auxiliary basis: def2/J
   F. Weigend, Phys. Chem. Chem. Phys. 8, 1057 (2006).

================================================================================
                                        WARNINGS
                       Please study these warnings very carefully!
================================================================================


INFO   : the flag for use of the SHARK integral package has been found!

================================================================================
                                       INPUT FILE
================================================================================
NAME = pbeh-3c.inp
|  1> ! PBEh-3c def2/J TightSCF DefGrid3
|  2> 
|  3> %maxcore 60000
|  4> 
|  5> %pal
|  6> nprocs 4
|  7> end
|  8> 
|  9> *xyzfile 0 1 12.xyz
| 10> 
| 11>                          ****END OF INPUT****
================================================================================

                       ****************************
                       * Single Point Calculation *
                       ****************************

---------------------------------
CARTESIAN COORDINATES (ANGSTROEM)
---------------------------------
  C     -1.246809   -1.171504   -0.696139
  C     -1.246809   -1.171504    0.696139
  C      0.731913   -2.264905    0.696729
  C      0.731913   -2.264905   -0.696729
  C     -0.337623    2.080379    1.130046
  C      0.854406    1.359665    1.130631
  C      0.854406    1.359665   -1.130631
  C     -0.337623    2.080379   -1.130046
  H      1.549181   -2.712512    1.247561
  H      1.549181   -2.712512   -1.247561
  H     -2.063057   -0.722003   -1.247280
  H     -2.063057   -0.722003    1.247280
  H     -0.809996    2.364621    2.061865
  H      1.321239    1.067379    2.062399
  H      1.321239    1.067379   -2.062399
  H     -0.809996    2.364621   -2.061865
  N      1.470559    0.991078    0.000000
  N     -0.258571   -1.723260    1.414480
  N     -0.258571   -1.723260   -1.414480
  N     -0.951926    2.453202    0.000000

----------------------------
CARTESIAN COORDINATES (A.U.)
----------------------------
  NO LB      ZA    FRAG     MASS         X           Y           Z
   0 C     6.0000    0    12.011   -2.356128   -2.213822   -1.315512
   1 C     6.0000    0    12.011   -2.356128   -2.213822    1.315512
   2 C     6.0000    0    12.011    1.383115   -4.280051    1.316627
   3 C     6.0000    0    12.011    1.383115   -4.280051   -1.316627
   4 C     6.0000    0    12.011   -0.638015    3.931346    2.135477
   5 C     6.0000    0    12.011    1.614593    2.569394    2.136583
   6 C     6.0000    0    12.011    1.614593    2.569394   -2.136583
   7 C     6.0000    0    12.011   -0.638015    3.931346   -2.135477
   8 H     1.0000    0     1.008    2.927528   -5.125904    2.357548
   9 H     1.0000    0     1.008    2.927528   -5.125904   -2.357548
  10 H     1.0000    0     1.008   -3.898612   -1.364387   -2.357018
  11 H     1.0000    0     1.008   -3.898612   -1.364387    2.357018
  12 H     1.0000    0     1.008   -1.530670    4.468487    3.896360
  13 H     1.0000    0     1.008    2.496780    2.017053    3.897370
  14 H     1.0000    0     1.008    2.496780    2.017053   -3.897370
  15 H     1.0000    0     1.008   -1.530670    4.468487   -3.896360
  16 N     7.0000    0    14.007    2.778955    1.872865    0.000000
  17 N     7.0000    0    14.007   -0.488628   -3.256490    2.672980
  18 N     7.0000    0    14.007   -0.488628   -3.256490   -2.672980
  19 N     7.0000    0    14.007   -1.798879    4.635880    0.000000

--------------------------------
INTERNAL COORDINATES (ANGSTROEM)
--------------------------------
 C      0   0   0     0.000000000000     0.00000000     0.00000000
 C      1   0   0     1.392278000000     0.00000000     0.00000000
 C      2   1   0     2.260723260378    90.01495296     0.00000000
 C      3   2   1     1.393458000000    89.98504704     0.00000000
 C      2   1   3     3.404355668798    97.32262492   103.30379158
 C      5   2   1     1.392968551141    74.59578320   267.94574605
 C      6   5   2     2.261262200000    89.97591302    82.39623678
 C      7   6   5     1.392968551141    89.97591302     0.00000000
 H      3   2   1     1.082448101325   149.42528292   179.63576356
 H      4   3   2     1.082448101325   120.58898594   179.78477732
 H      1   2   3     1.082620634789   120.60260452   179.91713348
 H      2   1   3     1.082620634789   120.60260452   180.08286652
 H      5   2   1     1.082689893980   104.11987266   149.59129677
 H      6   5   2     1.082384461841   120.60808170   262.92434856
 H      7   6   5     1.082384461841   149.41188849   180.89325070
 H      8   7   6     1.082689893980   120.58595073   180.07150518
 N      6   5   2     1.339338826171   122.39227860    82.56730430
 N      3   2   1     1.337760956540    32.46366427   180.39638991
 N      4   3   2     1.337760956540   122.44783915   359.74787053
 N      5   2   1     1.339166904164    92.05558084    31.13614206

---------------------------
INTERNAL COORDINATES (A.U.)
---------------------------
 C      0   0   0     0.000000000000     0.00000000     0.00000000
 C      1   0   0     2.631024122284     0.00000000     0.00000000
 C      2   1   0     4.272147826699    90.01495296     0.00000000
 C      3   2   1     2.633253999122    89.98504704     0.00000000
 C      2   1   3     6.433299876490    97.32262492   103.30379158
 C      5   2   1     2.632329074821    74.59578320   267.94574605
 C      6   5   2     4.273166274988    89.97591302    82.39623678
 C      7   6   5     2.632329074821    89.97591302     0.00000000
 H      3   2   1     2.045530465687   149.42528292   179.63576356
 H      4   3   2     2.045530465687   120.58898594   179.78477732
 H      1   2   3     2.045856506682   120.60260452   179.91713348
 H      2   1   3     2.045856506682   120.60260452   180.08286652
 H      5   2   1     2.045987387586   104.11987266   149.59129677
 H      6   5   2     2.045410204491   120.60808170   262.92434856
 H      7   6   5     2.045410204491   149.41188849   180.89325070
 H      8   7   6     2.045987387586   120.58595073   180.07150518
 N      6   5   2     2.530983581990   122.39227860    82.56730430
 N      3   2   1     2.528001840513    32.46366427   180.39638991
 N      4   3   2     2.528001840513   122.44783915   359.74787053
 N      5   2   1     2.530658696481    92.05558084    31.13614206

---------------------
BASIS SET INFORMATION
---------------------
There are 3 groups of distinct atoms

 Group   1 Type C   : 8s4p1d contracted to 4s2p1d pattern {5111/31/1}
 Group   2 Type H   : 4s contracted to 2s pattern {31}
 Group   3 Type N   : 8s4p1d contracted to 4s2p1d pattern {5111/31/1}

Atom   0C    basis set group =>   1
Atom   1C    basis set group =>   1
Atom   2C    basis set group =>   1
Atom   3C    basis set group =>   1
Atom   4C    basis set group =>   1
Atom   5C    basis set group =>   1
Atom   6C    basis set group =>   1
Atom   7C    basis set group =>   1
Atom   8H    basis set group =>   2
Atom   9H    basis set group =>   2
Atom  10H    basis set group =>   2
Atom  11H    basis set group =>   2
Atom  12H    basis set group =>   2
Atom  13H    basis set group =>   2
Atom  14H    basis set group =>   2
Atom  15H    basis set group =>   2
Atom  16N    basis set group =>   3
Atom  17N    basis set group =>   3
Atom  18N    basis set group =>   3
Atom  19N    basis set group =>   3
---------------------------------
AUXILIARY/J BASIS SET INFORMATION
---------------------------------
There are 3 groups of distinct atoms

 Group   1 Type C   : 12s5p4d2f1g contracted to 6s4p3d1f1g pattern {711111/2111/211/2/1}
 Group   2 Type H   : 5s2p1d contracted to 3s1p1d pattern {311/2/1}
 Group   3 Type N   : 12s5p4d2f1g contracted to 6s4p3d1f1g pattern {711111/2111/211/2/1}

Atom   0C    basis set group =>   1
Atom   1C    basis set group =>   1
Atom   2C    basis set group =>   1
Atom   3C    basis set group =>   1
Atom   4C    basis set group =>   1
Atom   5C    basis set group =>   1
Atom   6C    basis set group =>   1
Atom   7C    basis set group =>   1
Atom   8H    basis set group =>   2
Atom   9H    basis set group =>   2
Atom  10H    basis set group =>   2
Atom  11H    basis set group =>   2
Atom  12H    basis set group =>   2
Atom  13H    basis set group =>   2
Atom  14H    basis set group =>   2
Atom  15H    basis set group =>   2
Atom  16N    basis set group =>   3
Atom  17N    basis set group =>   3
Atom  18N    basis set group =>   3
Atom  19N    basis set group =>   3


           ************************************************************
           *        Program running with 4 parallel MPI-processes     *
           *              working on a common directory               *
           ************************************************************
------------------------------------------------------------------------------
                           ORCA GTO INTEGRAL CALCULATION
                           -- RI-GTO INTEGRALS CHOSEN --
------------------------------------------------------------------------------
------------------------------------------------------------------------------
                   ___                                                        
                  /   \      - P O W E R E D   B Y -                         
                 /     \                                                     
                 |  |  |   _    _      __       _____    __    __             
                 |  |  |  | |  | |    /  \     |  _  \  |  |  /  |          
                  \  \/   | |  | |   /    \    | | | |  |  | /  /          
                 / \  \   | |__| |  /  /\  \   | |_| |  |  |/  /          
                |  |  |   |  __  | /  /__\  \  |    /   |      \           
                |  |  |   | |  | | |   __   |  |    \   |  |\   \          
                \     /   | |  | | |  |  |  |  | |\  \  |  | \   \       
                 \___/    |_|  |_| |__|  |__|  |_| \__\ |__|  \__/        
                                                                              
                      - O R C A' S   B I G   F R I E N D -                    
                                      &                                       
                       - I N T E G R A L  F E E D E R -                       
                                                                              
 v1 FN, 2020, v2 2021                                                         
------------------------------------------------------------------------------


Reading SHARK input file pbeh-3c.SHARKINP.tmp ... ok
----------------------
SHARK INTEGRAL PACKAGE
----------------------

Number of atoms                             ...     20
Number of basis functions                   ...    196
Number of shells                            ...    100
Maximum angular momentum                    ...      2
Integral batch strategy                     ... SHARK/LIBINT Hybrid
RI-J (if used) integral strategy            ... SPLIT-RIJ (Revised 2003 algorithm where possible)
Printlevel                                  ...      1
Contraction scheme used                     ... SEGMENTED contraction
Coulomb Range Separation                    ... NOT USED
Exchange Range Separation                   ... NOT USED
Finite Nucleus Model                        ... NOT USED
Auxiliary Coulomb fitting basis             ... AVAILABLE
   # of basis functions in Aux-J            ...    676
   # of shells in Aux-J                     ...    220
   Maximum angular momentum in Aux-J        ...      4
Auxiliary J/K fitting basis                 ... NOT available
Auxiliary Correlation fitting basis         ... NOT available
Auxiliary 'external' fitting basis          ... NOT available
Integral threshold                          ...     2.500000e-11
Primitive cut-off                           ...     2.500000e-12
Primitive pair pre-selection threshold      ...     2.500000e-12

Calculating pre-screening integrals         ... done (  0.0 sec) Dimension = 100
Organizing shell pair data                  ... done (  0.2 sec)
Shell pair information
Total number of shell pairs                 ...      5050
Shell pairs after pre-screening             ...      4360
Total number of primitive shell pairs       ...     17946
Primitive shell pairs kept                  ...     10476
          la=0 lb=0:   1626 shell pairs
          la=1 lb=0:   1442 shell pairs
          la=1 lb=1:    300 shell pairs
          la=2 lb=0:    632 shell pairs
          la=2 lb=1:    286 shell pairs
          la=2 lb=2:     74 shell pairs

Calculating one electron integrals          ... done (  0.0 sec)
Calculating RI/J V-Matrix + Cholesky decomp.... done (  0.6 sec)
Calculating Nuclear repulsion               ... done (  0.0 sec) ENN=    654.131839258182 Eh

SHARK setup successfully completed in   1.8 seconds

Maximum memory used throughout the entire GTOINT-calculation: 12.9 MB


           ************************************************************
           *        Program running with 4 parallel MPI-processes     *
           *              working on a common directory               *
           ************************************************************
-------------------------------------------------------------------------------
                                 ORCA SCF
-------------------------------------------------------------------------------

------------
SCF SETTINGS
------------
Hamiltonian:
 Density Functional     Method          .... DFT(GTOs)
 Exchange Functional    Exchange        .... PBE
   PBE kappa parameter   XKappa         ....  1.024500
   PBE mue parameter    XMuePBE         ....  0.123457
 Correlation Functional Correlation     .... PBE
   PBE beta parameter  CBetaPBE         ....  0.030000
 LDA part of GGA corr.  LDAOpt          .... PW91-LDA
 Gradients option       PostSCFGGA      .... off
 Hybrid DFT is turned on
   Fraction HF Exchange ScalHFX         ....  0.420000
   Scaling of DF-GGA-X  ScalDFX         ....  0.580000
   Scaling of DF-GGA-C  ScalDFC         ....  1.000000
   Scaling of DF-LDA-C  ScalLDAC        ....  1.000000
   Perturbative correction              ....  0.000000
   Density functional embedding theory  .... OFF
 RI-approximation to the Coulomb term is turned on
   Number of AuxJ basis functions       .... 676
   RIJ-ON(X) (HFX calculated with O(N)) .... on
   Number of AuxJ basis functions       .... 676
   RIJ-COSX (HFX calculated with COS-X)).... on


General Settings:
 Integral files         IntName         .... pbeh-3c
 Hartree-Fock type      HFTyp           .... RHF
 Total Charge           Charge          ....    0
 Multiplicity           Mult            ....    1
 Number of Electrons    NEL             ....   84
 Basis Dimension        Dim             ....  196
 Nuclear Repulsion      ENuc            ....    654.1318392582 Eh

Convergence Acceleration:
 DIIS                   CNVDIIS         .... on
   Start iteration      DIISMaxIt       ....    12
   Startup error        DIISStart       ....  0.200000
   # of expansion vecs  DIISMaxEq       ....     5
   Bias factor          DIISBfac        ....   1.050
   Max. coefficient     DIISMaxC        ....  10.000
 Trust-Rad. Augm. Hess. CNVTRAH         .... auto
   Auto Start mean grad. ratio tolernc. ....  1.125000
   Auto Start start iteration           ....    20
   Auto Start num. interpolation iter.  ....    10
   Max. Number of Micro iterations      ....    16
   Max. Number of Macro iterations      .... Maxiter - #DIIS iter
   Number of Davidson start vectors     ....     2
   Converg. threshold I  (grad. norm)   ....   1.000e-05
   Converg. threshold II (energy diff.) ....   1.000e-08
   Grad. Scal. Fac. for Micro threshold ....   0.100
   Minimum threshold for Micro iter.    ....   0.010
   NR start threshold (gradient norm)   ....   0.001
   Initial trust radius                 ....   0.400
   Minimum AH scaling param. (alpha)    ....   1.000
   Maximum AH scaling param. (alpha)    .... 1000.000
   Orbital update algorithm             .... Taylor
   White noise on init. David. guess    .... on
   Maximum white noise                  ....   0.010
   Quad. conv. algorithm                .... NR
   COSX micro iterations for RIJONX calc.... off
 SOSCF                  CNVSOSCF        .... on
   Start iteration      SOSCFMaxIt      ....   150
   Startup grad/error   SOSCFStart      ....  0.003300
 Level Shifting         CNVShift        .... on
   Level shift para.    LevelShift      ....    0.2500
   Turn off err/grad.   ShiftErr        ....    0.0010
 Zerner damping         CNVZerner       .... off
 Static damping         CNVDamp         .... on
   Fraction old density DampFac         ....    0.7000
   Max. Damping (<1)    DampMax         ....    0.9800
   Min. Damping (>=0)   DampMin         ....    0.0000
   Turn off err/grad.   DampErr         ....    0.1000
 Fernandez-Rico         CNVRico         .... off

SCF Procedure:
 Maximum # iterations   MaxIter         ....   125
 SCF integral mode      SCFMode         .... Direct
   Integral package                     .... SHARK and LIBINT hybrid scheme
 Reset frequency        DirectResetFreq ....    20
 Integral Threshold     Thresh          ....  2.500e-11 Eh
 Primitive CutOff       TCut            ....  2.500e-12 Eh

Convergence Tolerance:
 Convergence Check Mode ConvCheckMode   .... Total+1el-Energy
 Convergence forced     ConvForced      .... 0
 Energy Change          TolE            ....  1.000e-08 Eh
 1-El. energy change                    ....  1.000e-05 Eh
 Orbital Gradient       TolG            ....  1.000e-05
 Orbital Rotation angle TolX            ....  1.000e-05
 DIIS Error             TolErr          ....  5.000e-07


Diagonalization of the overlap matrix:
Smallest eigenvalue                        ... 2.330e-03
Time for diagonalization                   ...    0.006 sec
Threshold for overlap eigenvalues          ... 1.000e-08
Number of eigenvalues below threshold      ... 0
Time for construction of square roots      ...    0.143 sec
Total time needed                          ...    0.156 sec

--------------------------------
INITIAL GUESS: MINIMAL BASIS EHT
--------------------------------
The minimal basis has 68 functions
EHT matrix was diagonalized
Basis set overlap was calculated now projecting the orbitals
Using GuessMode=FMatrix for the initial guess
C*T matrix was formed
Effective Fockian was calculated
Effective Fockian was diagonalized
Initial density was built
                      ------------------
                      INITIAL GUESS DONE
                      ------------------
-------------------
DFT GRID GENERATION
-------------------

General Integration Accuracy     IntAcc      ... 4.959
Radial Grid Type                 RadialGrid  ... OptM3 with GC (2021)
Angular Grid (max. ang.)         AngularGrid ... 6 (Lebedev-590)
Angular grid pruning method      GridPruning ... 4 (adaptive)
Weight generation scheme         WeightScheme... Becke
Basis function cutoff            BFCut       ... 1.0000e-11
Integration weight cutoff        WCut        ... 1.0000e-14
Angular grids for H and He will be reduced by one unit
Partially contracted basis set               ... off
Rotationally invariant grid construction     ... off

Total number of grid points                  ...   240478
Total number of batches                      ...     3769
Average number of points per batch           ...       63
Average number of grid points per atom       ...    12024
Time for grid setup =    4.983 sec

--------------------
COSX GRID GENERATION
--------------------

GRIDX 1
-------
General Integration Accuracy     IntAcc      ... 4.020
Radial Grid Type                 RadialGrid  ... OptM3 with GC (2021)
Angular Grid (max. ang.)         AngularGrid ... 2 (Lebedev-110)
Angular grid pruning method      GridPruning ... 4 (adaptive)
Weight generation scheme         WeightScheme... Becke
Basis function cutoff            BFCut       ... 1.0000e-11
Integration weight cutoff        WCut        ... 1.0000e-14
Angular grids for H and He will be reduced by one unit
Partially contracted basis set               ... on
Rotationally invariant grid construction     ... off

Total number of grid points                  ...    27416
Total number of batches                      ...      440
Average number of points per batch           ...       62
Average number of grid points per atom       ...     1371
UseSFitting                                  ... on

GRIDX 2
-------
General Integration Accuracy     IntAcc      ... 4.338
Radial Grid Type                 RadialGrid  ... OptM3 with GC (2021)
Angular Grid (max. ang.)         AngularGrid ... 3 (Lebedev-194)
Angular grid pruning method      GridPruning ... 4 (adaptive)
Weight generation scheme         WeightScheme... Becke
Basis function cutoff            BFCut       ... 1.0000e-11
Integration weight cutoff        WCut        ... 1.0000e-14
Angular grids for H and He will be reduced by one unit
Partially contracted basis set               ... on
Rotationally invariant grid construction     ... off

Total number of grid points                  ...    60171
Total number of batches                      ...      950
Average number of points per batch           ...       63
Average number of grid points per atom       ...     3009
UseSFitting                                  ... on

GRIDX 3
-------
General Integration Accuracy     IntAcc      ... 4.871
Radial Grid Type                 RadialGrid  ... OptM3 with GC (2021)
Angular Grid (max. ang.)         AngularGrid ... 4 (Lebedev-302)
Angular grid pruning method      GridPruning ... 4 (adaptive)
Weight generation scheme         WeightScheme... Becke
Basis function cutoff            BFCut       ... 1.0000e-11
Integration weight cutoff        WCut        ... 1.0000e-14
Angular grids for H and He will be reduced by one unit
Partially contracted basis set               ... on
Rotationally invariant grid construction     ... off

Total number of grid points                  ...   112192
Total number of batches                      ...     1762
Average number of points per batch           ...       63
Average number of grid points per atom       ...     5610
UseSFitting                                  ... on

Time for X-Grid setup             =    4.889 sec

--------------
SCF ITERATIONS
--------------
ITER       Energy         Delta-E        Max-DP      RMS-DP      [F,P]     Damp
               ***  Starting incremental Fock matrix formation  ***
  0   -525.6192748757   0.000000000000 0.15692531  0.00512859  0.3857042 0.7000
  1   -526.2881081699  -0.668833294199 0.09378055  0.00322476  0.2731191 0.7000
                               ***Turning on DIIS***
  2   -526.6485705503  -0.360462380320 0.05330281  0.00186808  0.1967431 0.7000
  3   -526.8904036504  -0.241833100194 0.03190208  0.00126362  0.1400198 0.7000
  4   -527.0633276982  -0.172924047794 0.06752432  0.00308901  0.0972799 0.0000
  5   -527.4808174142  -0.417489715984 0.01024033  0.00026033  0.0089518 0.0000
  6   -527.4814659273  -0.000648513093 0.00313445  0.00010566  0.0048648 0.0000
                      *** Initiating the SOSCF procedure ***
                           *** Shutting down DIIS ***
                      *** Re-Reading the Fockian *** 
                      *** Removing any level shift *** 
ITER      Energy       Delta-E        Grad      Rot      Max-DP    RMS-DP
  7   -527.48169935  -0.0002334219  0.000598  0.000598  0.002695  0.000071
               *** Restarting incremental Fock matrix formation ***
  8   -527.48171771  -0.0000183614  0.000092  0.000180  0.000395  0.000011
  9   -527.48171807  -0.0000003630  0.000060  0.000106  0.000112  0.000004
 10   -527.48171822  -0.0000001494  0.000018  0.000040  0.000040  0.000001
 11   -527.48171822   0.0000000052  0.000017  0.000025  0.000023  0.000001
                  ***Gradient check signals convergence***
              ***Rediagonalizing the Fockian in SOSCF/NRSCF***

               *****************************************************
               *                     SUCCESS                       *
               *           SCF CONVERGED AFTER  12 CYCLES          *
               *****************************************************

Old exchange energy                            =    -29.657649036 Eh
New exchange energy                            =    -29.657631228 Eh
Exchange energy change after final integration =      0.000017808 Eh
Total energy after final integration           =   -527.481700424 Eh
Final COS-X integration done in                =     9.091 sec

----------------
TOTAL SCF ENERGY
----------------

Total Energy       :         -527.48170042 Eh          -14353.50679 eV

Components:
Nuclear Repulsion  :          654.13183926 Eh           17799.83227 eV
Electronic Energy  :        -1181.61353968 Eh          -32153.33906 eV
One Electron Energy:        -2011.42258590 Eh          -54733.59116 eV
Two Electron Energy:          829.80904622 Eh           22580.25211 eV
Max COSX asymmetry :            0.00000144 Eh               0.00004 eV

Virial components:
Potential Energy   :        -1050.85194272 Eh          -28595.13511 eV
Kinetic Energy     :          523.37024230 Eh           14241.62832 eV
Virial Ratio       :            2.00785574


DFT components:
N(Alpha)           :       42.000007697467 electrons
N(Beta)            :       42.000007697467 electrons
N(Total)           :       84.000015394935 electrons
E(X)               :      -39.452738672695 Eh       
E(C)               :       -3.677648092676 Eh       
E(XC)              :      -43.130386765371 Eh       
DFET-embed. en.    :        0.000000000000 Eh       

---------------
SCF CONVERGENCE
---------------

  Last Energy change         ...   -1.4545e-08  Tolerance :   1.0000e-08
  Last MAX-Density change    ...    1.8874e-15  Tolerance :   1.0000e-07
  Last RMS-Density change    ...    3.6887e-17  Tolerance :   5.0000e-09
  Last Orbital Gradient      ...    1.9243e-06  Tolerance :   1.0000e-05
  Last Orbital Rotation      ...    5.4742e-06  Tolerance :   1.0000e-05

             **** THE GBW FILE WAS UPDATED (pbeh-3c.gbw) ****
             **** DENSITY pbeh-3c.scfp WAS UPDATED ****
             **** ENERGY FILE WAS UPDATED (pbeh-3c.en.tmp) ****
             **** THE GBW FILE WAS UPDATED (pbeh-3c.gbw) ****
             **** DENSITY pbeh-3c.scfp WAS UPDATED ****
----------------
ORBITAL ENERGIES
----------------

  NO   OCC          E(Eh)            E(eV) 
   0   2.0000     -14.664643      -399.0452 
   1   2.0000     -14.664099      -399.0304 
   2   2.0000     -14.663781      -399.0218 
   3   2.0000     -14.663651      -399.0182 
   4   2.0000     -10.495233      -285.5898 
   5   2.0000     -10.495180      -285.5884 
   6   2.0000     -10.494886      -285.5804 
   7   2.0000     -10.494489      -285.5696 
   8   2.0000     -10.494470      -285.5690 
   9   2.0000     -10.494307      -285.5646 
  10   2.0000     -10.494074      -285.5583 
  11   2.0000     -10.493507      -285.5428 
  12   2.0000      -1.093561       -29.7573 
  13   2.0000      -1.089771       -29.6542 
  14   2.0000      -1.013594       -27.5813 
  15   2.0000      -1.012919       -27.5629 
  16   2.0000      -0.873072       -23.7575 
  17   2.0000      -0.872354       -23.7380 
  18   2.0000      -0.746197       -20.3050 
  19   2.0000      -0.745503       -20.2862 
  20   2.0000      -0.738785       -20.1033 
  21   2.0000      -0.737608       -20.0713 
  22   2.0000      -0.602364       -16.3911 
  23   2.0000      -0.600152       -16.3310 
  24   2.0000      -0.586003       -15.9460 
  25   2.0000      -0.585423       -15.9302 
  26   2.0000      -0.557173       -15.1615 
  27   2.0000      -0.556848       -15.1526 
  28   2.0000      -0.503705       -13.7065 
  29   2.0000      -0.501885       -13.6570 
  30   2.0000      -0.500747       -13.6260 
  31   2.0000      -0.470063       -12.7911 
  32   2.0000      -0.448198       -12.1961 
  33   2.0000      -0.447186       -12.1685 
  34   2.0000      -0.381481       -10.3806 
  35   2.0000      -0.379754       -10.3336 
  36   2.0000      -0.379111       -10.3161 
  37   2.0000      -0.378999       -10.3131 
  38   2.0000      -0.317887        -8.6501 
  39   2.0000      -0.315999        -8.5988 
  40   2.0000      -0.309117        -8.4115 
  41   2.0000      -0.308112        -8.3842 
  42   0.0000      -0.034268        -0.9325 
  43   0.0000      -0.026779        -0.7287 
  44   0.0000      -0.007201        -0.1960 
  45   0.0000       0.003416         0.0930 
  46   0.0000       0.162799         4.4300 
  47   0.0000       0.168397         4.5823 
  48   0.0000       0.168853         4.5947 
  49   0.0000       0.175549         4.7769 
  50   0.0000       0.191406         5.2084 
  51   0.0000       0.192992         5.2516 
  52   0.0000       0.201144         5.4734 
  53   0.0000       0.207903         5.6573 
  54   0.0000       0.215009         5.8507 
  55   0.0000       0.218932         5.9574 
  56   0.0000       0.219113         5.9624 
  57   0.0000       0.225427         6.1342 
  58   0.0000       0.301197         8.1960 
  59   0.0000       0.303927         8.2703 
  60   0.0000       0.334531         9.1030 
  61   0.0000       0.335103         9.1186 
  62   0.0000       0.343620         9.3504 
  63   0.0000       0.347140         9.4462 
  64   0.0000       0.430482        11.7140 
  65   0.0000       0.454696        12.3729 
  66   0.0000       0.457012        12.4359 
  67   0.0000       0.466936        12.7060 
  68   0.0000       0.497535        13.5386 
  69   0.0000       0.506886        13.7931 
  70   0.0000       0.517395        14.0790 
  71   0.0000       0.517794        14.0899 
  72   0.0000       0.525437        14.2979 
  73   0.0000       0.540456        14.7066 
  74   0.0000       0.541978        14.7480 
  75   0.0000       0.580678        15.8011 
  76   0.0000       0.593164        16.1408 
  77   0.0000       0.602638        16.3986 
  78   0.0000       0.604422        16.4472 
  79   0.0000       0.633004        17.2249 
  80   0.0000       0.636774        17.3275 
  81   0.0000       0.656407        17.8618 
  82   0.0000       0.663346        18.0506 
  83   0.0000       0.675625        18.3847 
  84   0.0000       0.701456        19.0876 
  85   0.0000       0.725037        19.7293 
  86   0.0000       0.728334        19.8190 
  87   0.0000       0.746646        20.3173 
  88   0.0000       0.806166        21.9369 
  89   0.0000       0.825581        22.4652 
  90   0.0000       0.832669        22.6581 
  91   0.0000       0.839147        22.8344 
  92   0.0000       0.882586        24.0164 
  93   0.0000       0.896284        24.3891 
  94   0.0000       0.900895        24.5146 
  95   0.0000       0.914704        24.8904 
  96   0.0000       0.920302        25.0427 
  97   0.0000       0.930022        25.3072 
  98   0.0000       0.944083        25.6898 
  99   0.0000       0.944141        25.6914 
 100   0.0000       0.959038        26.0967 
 101   0.0000       0.981853        26.7176 
 102   0.0000       0.983861        26.7722 
 103   0.0000       0.991175        26.9712 
 104   0.0000       1.009920        27.4813 
 105   0.0000       1.021529        27.7972 
 106   0.0000       1.028469        27.9861 
 107   0.0000       1.046393        28.4738 
 108   0.0000       1.051756        28.6197 
 109   0.0000       1.055271        28.7154 
 110   0.0000       1.111968        30.2582 
 111   0.0000       1.127370        30.6773 
 112   0.0000       1.135653        30.9027 
 113   0.0000       1.152490        31.3608 
 114   0.0000       1.183415        32.2024 
 115   0.0000       1.218198        33.1488 
 116   0.0000       1.251921        34.0665 
 117   0.0000       1.262501        34.3544 
 118   0.0000       1.285314        34.9752 
 119   0.0000       1.290652        35.1204 
 120   0.0000       1.352758        36.8104 
 121   0.0000       1.382345        37.6155 
 122   0.0000       1.412863        38.4460 
 123   0.0000       1.414570        38.4924 
 124   0.0000       1.525919        41.5224 
 125   0.0000       1.529507        41.6200 
 126   0.0000       1.544223        42.0204 
 127   0.0000       1.547399        42.1069 
 128   0.0000       1.550637        42.1950 
 129   0.0000       1.557812        42.3902 
 130   0.0000       1.560689        42.4685 
 131   0.0000       1.561863        42.5005 
 132   0.0000       1.573566        42.8189 
 133   0.0000       1.579751        42.9872 
 134   0.0000       1.737668        47.2844 
 135   0.0000       1.761236        47.9257 
 136   0.0000       1.837566        50.0027 
 137   0.0000       1.841500        50.1098 
 138   0.0000       1.845976        50.2316 
 139   0.0000       1.854670        50.4681 
 140   0.0000       1.865315        50.7578 
 141   0.0000       1.882119        51.2151 
 142   0.0000       1.943518        52.8858 
 143   0.0000       1.948635        53.0251 
 144   0.0000       2.047593        55.7178 
 145   0.0000       2.048858        55.7523 
 146   0.0000       2.091105        56.9019 
 147   0.0000       2.098811        57.1115 
 148   0.0000       2.158336        58.7313 
 149   0.0000       2.176075        59.2140 
 150   0.0000       2.216436        60.3123 
 151   0.0000       2.229615        60.6709 
 152   0.0000       2.260734        61.5177 
 153   0.0000       2.266415        61.6723 
 154   0.0000       2.301334        62.6225 
 155   0.0000       2.317214        63.0546 
 156   0.0000       2.322427        63.1964 
 157   0.0000       2.324344        63.2486 
 158   0.0000       2.340411        63.6858 
 159   0.0000       2.343774        63.7773 
 160   0.0000       2.400530        65.3218 
 161   0.0000       2.405105        65.4462 
 162   0.0000       2.488540        67.7166 
 163   0.0000       2.489531        67.7436 
 164   0.0000       2.513768        68.4031 
 165   0.0000       2.536627        69.0251 
 166   0.0000       2.606670        70.9311 
 167   0.0000       2.612130        71.0797 
 168   0.0000       2.638628        71.8007 
 169   0.0000       2.646319        72.0100 
 170   0.0000       2.777625        75.5830 
 171   0.0000       2.780392        75.6583 
 172   0.0000       2.781357        75.6846 
 173   0.0000       2.783048        75.7306 
 174   0.0000       2.799465        76.1773 
 175   0.0000       2.803323        76.2823 
 176   0.0000       2.811585        76.5071 
 177   0.0000       2.812533        76.5329 
 178   0.0000       2.896013        78.8045 
 179   0.0000       2.897274        78.8388 
 180   0.0000       3.110288        84.6352 
 181   0.0000       3.120767        84.9204 
 182   0.0000       3.467286        94.3496 
 183   0.0000       3.470413        94.4347 
 184   0.0000      13.428731       365.4143 
 185   0.0000      13.505790       367.5112 
 186   0.0000      13.605465       370.2235 
 187   0.0000      13.624739       370.7480 
 188   0.0000      14.098594       383.6423 
 189   0.0000      14.108894       383.9225 
 190   0.0000      14.135386       384.6434 
 191   0.0000      14.159363       385.2959 
 192   0.0000      19.241158       523.5785 
 193   0.0000      19.245730       523.7029 
 194   0.0000      19.546446       531.8858 
 195   0.0000      19.561587       532.2978 

                    ********************************
                    * MULLIKEN POPULATION ANALYSIS *
                    ********************************

-----------------------
MULLIKEN ATOMIC CHARGES
-----------------------
   0 C :   -0.090527
   1 C :   -0.090526
   2 C :   -0.079009
   3 C :   -0.079009
   4 C :   -0.094878
   5 C :   -0.084602
   6 C :   -0.084602
   7 C :   -0.094878
   8 H :    0.240159
   9 H :    0.240159
  10 H :    0.244153
  11 H :    0.244153
  12 H :    0.241133
  13 H :    0.246088
  14 H :    0.246088
  15 H :    0.241133
  16 N :   -0.308483
  17 N :   -0.313509
  18 N :   -0.313509
  19 N :   -0.309534
Sum of atomic charges:    0.0000000

--------------------------------
MULLIKEN REDUCED ORBITAL CHARGES
--------------------------------
  0 C s       :     3.183613  s :     3.183613
      pz      :     0.937833  p :     2.849353
      px      :     0.962144
      py      :     0.949377
      dz2     :     0.015187  d :     0.057560
      dxz     :     0.017520
      dyz     :     0.009495
      dx2y2   :     0.006741
      dxy     :     0.008616
  1 C s       :     3.183613  s :     3.183613
      pz      :     0.937833  p :     2.849353
      px      :     0.962144
      py      :     0.949377
      dz2     :     0.015187  d :     0.057560
      dxz     :     0.017520
      dyz     :     0.009495
      dx2y2   :     0.006741
      dxy     :     0.008616
  2 C s       :     3.179226  s :     3.179226
      pz      :     0.936334  p :     2.842154
      px      :     0.958415
      py      :     0.947404
      dz2     :     0.015278  d :     0.057629
      dxz     :     0.017661
      dyz     :     0.009388
      dx2y2   :     0.006678
      dxy     :     0.008624
  3 C s       :     3.179226  s :     3.179226
      pz      :     0.936334  p :     2.842154
      px      :     0.958415
      py      :     0.947404
      dz2     :     0.015278  d :     0.057629
      dxz     :     0.017661
      dyz     :     0.009388
      dx2y2   :     0.006678
      dxy     :     0.008624
  4 C s       :     3.183140  s :     3.183140
      pz      :     0.963863  p :     2.854175
      px      :     0.941645
      py      :     0.948668
      dz2     :     0.017757  d :     0.057563
      dxz     :     0.016987
      dyz     :     0.009599
      dx2y2   :     0.006221
      dxy     :     0.006999
  5 C s       :     3.185621  s :     3.185621
      pz      :     0.968530  p :     2.841254
      px      :     0.936108
      py      :     0.936616
      dz2     :     0.017846  d :     0.057727
      dxz     :     0.016871
      dyz     :     0.009669
      dx2y2   :     0.006256
      dxy     :     0.007086
  6 C s       :     3.185621  s :     3.185621
      pz      :     0.968530  p :     2.841254
      px      :     0.936109
      py      :     0.936616
      dz2     :     0.017846  d :     0.057727
      dxz     :     0.016871
      dyz     :     0.009669
      dx2y2   :     0.006256
      dxy     :     0.007086
  7 C s       :     3.183140  s :     3.183140
      pz      :     0.963863  p :     2.854175
      px      :     0.941645
      py      :     0.948668
      dz2     :     0.017757  d :     0.057563
      dxz     :     0.016987
      dyz     :     0.009599
      dx2y2   :     0.006221
      dxy     :     0.006999
  8 H s       :     0.759841  s :     0.759841
  9 H s       :     0.759841  s :     0.759841
 10 H s       :     0.755847  s :     0.755847
 11 H s       :     0.755847  s :     0.755847
 12 H s       :     0.758867  s :     0.758867
 13 H s       :     0.753912  s :     0.753912
 14 H s       :     0.753912  s :     0.753912
 15 H s       :     0.758867  s :     0.758867
 16 N s       :     3.615888  s :     3.615888
      pz      :     1.023418  p :     3.649152
      px      :     1.422827
      py      :     1.202906
      dz2     :     0.006359  d :     0.043444
      dxz     :     0.014462
      dyz     :     0.009694
      dx2y2   :     0.007081
      dxy     :     0.005848
 17 N s       :     3.617094  s :     3.617094
      pz      :     1.554729  p :     3.652946
      px      :     1.038089
      py      :     1.060127
      dz2     :     0.006417  d :     0.043470
      dxz     :     0.014898
      dyz     :     0.009705
      dx2y2   :     0.006645
      dxy     :     0.005804
 18 N s       :     3.617094  s :     3.617094
      pz      :     1.554729  p :     3.652946
      px      :     1.038089
      py      :     1.060127
      dz2     :     0.006417  d :     0.043470
      dxz     :     0.014898
      dyz     :     0.009705
      dx2y2   :     0.006645
      dxy     :     0.005804
 19 N s       :     3.613268  s :     3.613268
      pz      :     1.025636  p :     3.652735
      px      :     1.429770
      py      :     1.197329
      dz2     :     0.006321  d :     0.043531
      dxz     :     0.014508
      dyz     :     0.009883
      dx2y2   :     0.007007
      dxy     :     0.005812


                     *******************************
                     * LOEWDIN POPULATION ANALYSIS *
                     *******************************

----------------------
LOEWDIN ATOMIC CHARGES
----------------------
   0 C :   -0.083508
   1 C :   -0.083508
   2 C :   -0.079032
   3 C :   -0.079032
   4 C :   -0.087853
   5 C :   -0.077594
   6 C :   -0.077594
   7 C :   -0.087853
   8 H :    0.136439
   9 H :    0.136439
  10 H :    0.137359
  11 H :    0.137359
  12 H :    0.136377
  13 H :    0.139284
  14 H :    0.139284
  15 H :    0.136377
  16 N :   -0.109455
  17 N :   -0.110705
  18 N :   -0.110705
  19 N :   -0.112080

-------------------------------
LOEWDIN REDUCED ORBITAL CHARGES
-------------------------------
  0 C s       :     2.899451  s :     2.899451
      pz      :     1.076599  p :     3.055716
      px      :     1.017290
      py      :     0.961828
      dz2     :     0.039396  d :     0.128341
      dxz     :     0.040096
      dyz     :     0.020643
      dx2y2   :     0.011891
      dxy     :     0.016315
  1 C s       :     2.899451  s :     2.899451
      pz      :     1.076599  p :     3.055716
      px      :     1.017290
      py      :     0.961828
      dz2     :     0.039396  d :     0.128341
      dxz     :     0.040096
      dyz     :     0.020643
      dx2y2   :     0.011891
      dxy     :     0.016315
  2 C s       :     2.898611  s :     2.898611
      pz      :     1.075805  p :     3.051768
      px      :     1.015303
      py      :     0.960660
      dz2     :     0.039616  d :     0.128652
      dxz     :     0.040349
      dyz     :     0.020370
      dx2y2   :     0.011905
      dxy     :     0.016412
  3 C s       :     2.898611  s :     2.898611
      pz      :     1.075805  p :     3.051768
      px      :     1.015303
      py      :     0.960660
      dz2     :     0.039616  d :     0.128652
      dxz     :     0.040349
      dyz     :     0.020370
      dx2y2   :     0.011905
      dxy     :     0.016412
  4 C s       :     2.898923  s :     2.898923
      pz      :     1.039433  p :     3.060469
      px      :     1.041444
      py      :     0.979591
      dz2     :     0.039985  d :     0.128462
      dxz     :     0.038224
      dyz     :     0.019563
      dx2y2   :     0.013373
      dxy     :     0.017317
  5 C s       :     2.899989  s :     2.899989
      pz      :     1.041704  p :     3.049076
      px      :     1.037148
      py      :     0.970224
      dz2     :     0.039996  d :     0.128528
      dxz     :     0.038010
      dyz     :     0.019637
      dx2y2   :     0.013551
      dxy     :     0.017333
  6 C s       :     2.899989  s :     2.899989
      pz      :     1.041704  p :     3.049076
      px      :     1.037148
      py      :     0.970224
      dz2     :     0.039996  d :     0.128528
      dxz     :     0.038010
      dyz     :     0.019637
      dx2y2   :     0.013551
      dxy     :     0.017333
  7 C s       :     2.898923  s :     2.898923
      pz      :     1.039433  p :     3.060469
      px      :     1.041444
      py      :     0.979591
      dz2     :     0.039985  d :     0.128462
      dxz     :     0.038224
      dyz     :     0.019563
      dx2y2   :     0.013373
      dxy     :     0.017317
  8 H s       :     0.863561  s :     0.863561
  9 H s       :     0.863561  s :     0.863561
 10 H s       :     0.862641  s :     0.862641
 11 H s       :     0.862641  s :     0.862641
 12 H s       :     0.863623  s :     0.863623
 13 H s       :     0.860716  s :     0.860716
 14 H s       :     0.860716  s :     0.860716
 15 H s       :     0.863623  s :     0.863623
 16 N s       :     3.220221  s :     3.220221
      pz      :     1.160611  p :     3.797484
      px      :     1.440245
      py      :     1.196628
      dz2     :     0.021668  d :     0.091751
      dxz     :     0.032738
      dyz     :     0.021984
      dx2y2   :     0.008010
      dxy     :     0.007350
 17 N s       :     3.219830  s :     3.219830
      pz      :     1.580026  p :     3.799015
      px      :     1.137413
      py      :     1.081577
      dz2     :     0.012893  d :     0.091859
      dxz     :     0.031461
      dyz     :     0.015231
      dx2y2   :     0.016219
      dxy     :     0.016055
 18 N s       :     3.219830  s :     3.219830
      pz      :     1.580026  p :     3.799015
      px      :     1.137413
      py      :     1.081577
      dz2     :     0.012893  d :     0.091859
      dxz     :     0.031461
      dyz     :     0.015231
      dx2y2   :     0.016219
      dxy     :     0.016055
 19 N s       :     3.220479  s :     3.220479
      pz      :     1.161321  p :     3.799511
      px      :     1.442028
      py      :     1.196162
      dz2     :     0.021555  d :     0.092090
      dxz     :     0.032673
      dyz     :     0.022611
      dx2y2   :     0.007888
      dxy     :     0.007364


                      *****************************
                      * MAYER POPULATION ANALYSIS *
                      *****************************

  NA   - Mulliken gross atomic population
  ZA   - Total nuclear charge
  QA   - Mulliken gross atomic charge
  VA   - Mayer's total valence
  BVA  - Mayer's bonded valence
  FA   - Mayer's free valence

  ATOM       NA         ZA         QA         VA         BVA        FA
  0 C      6.0905     6.0000    -0.0905     3.8228     3.8228    -0.0000
  1 C      6.0905     6.0000    -0.0905     3.8228     3.8228    -0.0000
  2 C      6.0790     6.0000    -0.0790     3.8305     3.8305     0.0000
  3 C      6.0790     6.0000    -0.0790     3.8305     3.8305     0.0000
  4 C      6.0949     6.0000    -0.0949     3.8285     3.8285     0.0000
  5 C      6.0846     6.0000    -0.0846     3.8241     3.8241    -0.0000
  6 C      6.0846     6.0000    -0.0846     3.8241     3.8241    -0.0000
  7 C      6.0949     6.0000    -0.0949     3.8285     3.8285     0.0000
  8 H      0.7598     1.0000     0.2402     0.9038     0.9038     0.0000
  9 H      0.7598     1.0000     0.2402     0.9038     0.9038     0.0000
 10 H      0.7558     1.0000     0.2442     0.9032     0.9032     0.0000
 11 H      0.7558     1.0000     0.2442     0.9032     0.9032     0.0000
 12 H      0.7589     1.0000     0.2411     0.9034     0.9034    -0.0000
 13 H      0.7539     1.0000     0.2461     0.9031     0.9031    -0.0000
 14 H      0.7539     1.0000     0.2461     0.9031     0.9031    -0.0000
 15 H      0.7589     1.0000     0.2411     0.9034     0.9034     0.0000
 16 N      7.3085     7.0000    -0.3085     3.0880     3.0880     0.0000
 17 N      7.3135     7.0000    -0.3135     3.0881     3.0881     0.0000
 18 N      7.3135     7.0000    -0.3135     3.0881     3.0881     0.0000
 19 N      7.3095     7.0000    -0.3095     3.0925     3.0925     0.0000

  Mayer bond orders larger than 0.100000
B(  0-C ,  1-C ) :   1.3520 B(  0-C ,  2-C ) :   0.1037 B(  0-C , 10-H ) :   0.9065 
B(  0-C , 18-N ) :   1.4842 B(  1-C ,  3-C ) :   0.1037 B(  1-C , 11-H ) :   0.9065 
B(  1-C , 17-N ) :   1.4842 B(  2-C ,  3-C ) :   1.3358 B(  2-C ,  8-H ) :   0.9090 
B(  2-C , 17-N ) :   1.5058 B(  3-C ,  9-H ) :   0.9090 B(  3-C , 18-N ) :   1.5058 
B(  4-C ,  5-C ) :   1.3423 B(  4-C ,  6-C ) :   0.1042 B(  4-C , 12-H ) :   0.9088 
B(  4-C , 19-N ) :   1.4993 B(  5-C ,  7-C ) :   0.1042 B(  5-C , 13-H ) :   0.9059 
B(  5-C , 16-N ) :   1.4943 B(  6-C ,  7-C ) :   1.3423 B(  6-C , 14-H ) :   0.9059 
B(  6-C , 16-N ) :   1.4943 B(  7-C , 15-H ) :   0.9088 B(  7-C , 19-N ) :   1.4993 


-------
TIMINGS
-------

Total SCF time: 0 days 0 hours 1 min 54 sec 

Total time                  ....     114.925 sec
Sum of individual times     ....     108.563 sec  ( 94.5%)

Fock matrix formation       ....      93.078 sec  ( 81.0%)
  Split-RI-J                ....       9.326 sec  ( 10.0% of F)
  Chain of spheres X        ....      53.540 sec  ( 57.5% of F)
  XC integration            ....      19.582 sec  ( 21.0% of F)
    Basis function eval.    ....       5.059 sec  ( 25.8% of XC)
    Density eval.           ....       3.319 sec  ( 16.9% of XC)
    XC-Functional eval.     ....       1.809 sec  (  9.2% of XC)
    XC-Potential eval.      ....       1.943 sec  (  9.9% of XC)
Diagonalization             ....       1.430 sec  (  1.2%)
Density matrix formation    ....       0.129 sec  (  0.1%)
Population analysis         ....       0.521 sec  (  0.5%)
Initial guess               ....       0.077 sec  (  0.1%)
Orbital Transformation      ....       0.000 sec  (  0.0%)
Orbital Orthonormalization  ....       0.000 sec  (  0.0%)
DIIS solution               ....       2.244 sec  (  2.0%)
SOSCF solution              ....       1.212 sec  (  1.1%)
Grid generation             ....       9.872 sec  (  8.6%)

Maximum memory used throughout the entire SCF-calculation: 62.8 MB


-------------------------------------------------------------------------------
                          DFT DISPERSION CORRECTION                            
                                                                               
                              DFTD3 V3.1  Rev 1                                
                          USING Becke-Johnson damping                          
-------------------------------------------------------------------------------
The PBEh-3c composite method is recognized
Using three-body term ABC
Active option DFTDOPT                   ...         4   

molecular C6(AA) [au] = 5134.114097 


            DFT-D V3
 parameters
 s6 scaling factor         :     1.0000 
 a1 scaling factor         :     0.4860 
 s8 scaling factor         :     0.0000 
 a2 scaling factor         :     4.5000 
 Damping factor alpha9(ATM):    16.0000 
 ad hoc parameters k1-k3   :    16.0000     1.3333    -4.0000 

 Edisp/kcal,au: -8.697011993823  -0.013859569338 
 E6   /kcal   :  -8.805648822 
 E8   /kcal   :  -0.000000000 
 E6(ABC)      :   0.108636828 
 % E8         :   0.000000000 
 % E6(ABC)    :  -1.249128189 

-------------------------   ----------------
Dispersion correction           -0.013859569
-------------------------   ----------------

------------------   -----------------
gCP correction             0.032797038
------------------   -----------------

-------------------------   --------------------
FINAL SINGLE POINT ENERGY      -527.462762955878
-------------------------   --------------------


                            ***************************************
                            *     ORCA property calculations      *
                            ***************************************

                                    ---------------------
                                    Active property flags
                                    ---------------------
   (+) Dipole Moment


------------------------------------------------------------------------------
                       ORCA ELECTRIC PROPERTIES CALCULATION
------------------------------------------------------------------------------

Dipole Moment Calculation                       ... on
Quadrupole Moment Calculation                   ... off
Polarizability Calculation                      ... off
GBWName                                         ... pbeh-3c.gbw
Electron density                                ... pbeh-3c.scfp
The origin for moment calculation is the CENTER OF MASS  = ( 0.000719,  0.000600  0.000000)

-------------
DIPOLE MOMENT
-------------
                                X             Y             Z
Electronic contribution:      0.07934      -0.02932       0.00000
Nuclear contribution   :     -0.00779      -0.00712       0.00000
                        -----------------------------------------
Total Dipole Moment    :      0.07155      -0.03644       0.00000
                        -----------------------------------------
Magnitude (a.u.)       :      0.08030
Magnitude (Debye)      :      0.20410



--------------------
Rotational spectrum 
--------------------
 
Rotational constants in cm-1:     0.056615     0.025980     0.024812 
Rotational constants in MHz :  1697.280277   778.855274   743.832216 

 Dipole components along the rotational axes: 
x,y,z [a.u.] :    -0.036443     0.000000    -0.071550 
x,y,z [Debye]:    -0.092630     0.000000    -0.181865 

 

Timings for individual modules:

Sum of individual times         ...      118.045 sec (=   1.967 min)
GTO integral calculation        ...        2.334 sec (=   0.039 min)   2.0 %
SCF iterations                  ...      115.710 sec (=   1.929 min)  98.0 %
                             ****ORCA TERMINATED NORMALLY****
TOTAL RUN TIME: 0 days 0 hours 2 minutes 2 seconds 463 msec
