
                                 *****************
                                 * O   R   C   A *
                                 *****************

                                            #,                                       
                                            ###                                      
                                            ####                                     
                                            #####                                    
                                            ######                                   
                                           ########,                                 
                                     ,,################,,,,,                         
                               ,,#################################,,                 
                          ,,##########################################,,             
                       ,#########################################, ''#####,          
                    ,#############################################,,   '####,        
                  ,##################################################,,,,####,       
                ,###########''''           ''''###############################       
              ,#####''   ,,,,##########,,,,          '''####'''          '####       
            ,##' ,,,,###########################,,,                        '##       
           ' ,,###''''                  '''############,,,                           
         ,,##''                                '''############,,,,        ,,,,,,###''
      ,#''                                            '''#######################'''  
     '                                                          ''''####''''         
             ,#######,   #######,   ,#######,      ##                                
            ,#'     '#,  ##    ##  ,#'     '#,    #''#        ######   ,####,        
            ##       ##  ##   ,#'  ##            #'  '#       #        #'  '#        
            ##       ##  #######   ##           ,######,      #####,   #    #        
            '#,     ,#'  ##    ##  '#,     ,#' ,#      #,         ##   #,  ,#        
             '#######'   ##     ##  '#######'  #'      '#     #####' # '####'        



                  #######################################################
                  #                        -***-                        #
                  #          Department of theory and spectroscopy      #
                  #    Directorship and core code : Frank Neese         #
                  #        Max Planck Institute fuer Kohlenforschung    #
                  #                Kaiser Wilhelm Platz 1               #
                  #                 D-45470 Muelheim/Ruhr               #
                  #                      Germany                        #
                  #                                                     #
                  #                  All rights reserved                #
                  #                        -***-                        #
                  #######################################################


                         Program Version 5.0.3 -  RELEASE  -


 With contributions from (in alphabetic order):
   Daniel Aravena         : Magnetic Suceptibility
   Michael Atanasov       : Ab Initio Ligand Field Theory (pilot matlab implementation)
   Alexander A. Auer      : GIAO ZORA, VPT2 properties, NMR spectrum
   Ute Becker             : Parallelization
   Giovanni Bistoni       : ED, misc. LED, open-shell LED, HFLD
   Martin Brehm           : Molecular dynamics
   Dmytro Bykov           : SCF Hessian
   Vijay G. Chilkuri      : MRCI spin determinant printing, contributions to CSF-ICE
   Dipayan Datta          : RHF DLPNO-CCSD density
   Achintya Kumar Dutta   : EOM-CC, STEOM-CC
   Dmitry Ganyushin       : Spin-Orbit,Spin-Spin,Magnetic field MRCI
   Miquel Garcia          : C-PCM and meta-GGA Hessian, CC/C-PCM, Gaussian charge scheme
   Yang Guo               : DLPNO-NEVPT2, F12-NEVPT2, CIM, IAO-localization
   Andreas Hansen         : Spin unrestricted coupled pair/coupled cluster methods
   Benjamin Helmich-Paris : MC-RPA, TRAH-SCF, COSX integrals
   Lee Huntington         : MR-EOM, pCC
   Robert Izsak           : Overlap fitted RIJCOSX, COSX-SCS-MP3, EOM
   Marcus Kettner         : VPT2
   Christian Kollmar      : KDIIS, OOCD, Brueckner-CCSD(T), CCSD density, CASPT2, CASPT2-K
   Simone Kossmann        : Meta GGA functionals, TD-DFT gradient, OOMP2, MP2 Hessian
   Martin Krupicka        : Initial AUTO-CI
   Lucas Lang             : DCDCAS
   Marvin Lechner         : AUTO-CI (C++ implementation), FIC-MRCC
   Dagmar Lenk            : GEPOL surface, SMD
   Dimitrios Liakos       : Extrapolation schemes; Compound Job, initial MDCI parallelization
   Dimitrios Manganas     : Further ROCIS development; embedding schemes
   Dimitrios Pantazis     : SARC Basis sets
   Anastasios Papadopoulos: AUTO-CI, single reference methods and gradients
   Taras Petrenko         : DFT Hessian,TD-DFT gradient, ASA, ECA, R-Raman, ABS, FL, XAS/XES, NRVS
   Peter Pinski           : DLPNO-MP2, DLPNO-MP2 Gradient
   Christoph Reimann      : Effective Core Potentials
   Marius Retegan         : Local ZFS, SOC
   Christoph Riplinger    : Optimizer, TS searches, QM/MM, DLPNO-CCSD(T), (RO)-DLPNO pert. Triples
   Tobias Risthaus        : Range-separated hybrids, TD-DFT gradient, RPA, STAB
   Michael Roemelt        : Original ROCIS implementation
   Masaaki Saitow         : Open-shell DLPNO-CCSD energy and density
   Barbara Sandhoefer     : DKH picture change effects
   Avijit Sen             : IP-ROCIS
   Kantharuban Sivalingam : CASSCF convergence, NEVPT2, FIC-MRCI
   Bernardo de Souza      : ESD, SOC TD-DFT
   Georgi Stoychev        : AutoAux, RI-MP2 NMR, DLPNO-MP2 response
   Willem Van den Heuvel  : Paramagnetic NMR
   Boris Wezisla          : Elementary symmetry handling
   Frank Wennmohs         : Technical directorship


 We gratefully acknowledge several colleagues who have allowed us to
 interface, adapt or use parts of their codes:
   Stefan Grimme, W. Hujo, H. Kruse, P. Pracht,  : VdW corrections, initial TS optimization,
                  C. Bannwarth, S. Ehlert          DFT functionals, gCP, sTDA/sTD-DF
   Ed Valeev, F. Pavosevic, A. Kumar             : LibInt (2-el integral package), F12 methods
   Garnet Chan, S. Sharma, J. Yang, R. Olivares  : DMRG
   Ulf Ekstrom                                   : XCFun DFT Library
   Mihaly Kallay                                 : mrcc  (arbitrary order and MRCC methods)
   Jiri Pittner, Ondrej Demel                    : Mk-CCSD
   Frank Weinhold                                : gennbo (NPA and NBO analysis)
   Christopher J. Cramer and Donald G. Truhlar   : smd solvation model
   Lars Goerigk                                  : TD-DFT with DH, B97 family of functionals
   V. Asgeirsson, H. Jonsson                     : NEB implementation
   FAccTs GmbH                                   : IRC, NEB, NEB-TS, DLPNO-Multilevel, CI-OPT
                                                   MM, QMMM, 2- and 3-layer-ONIOM, Crystal-QMMM,
                                                   LR-CPCM, SF, NACMEs, symmetry and pop. for TD-DFT,
                                                   nearIR, NL-DFT gradient (VV10), updates on ESD,
                                                   ML-optimized integration grids
   S Lehtola, MJT Oliveira, MAL Marques          : LibXC Library
   Liviu Ungur et al                             : ANISO software


 Your calculation uses the libint2 library for the computation of 2-el integrals
 For citations please refer to: http://libint.valeyev.net

 Your ORCA version has been built with support for libXC version: 5.1.0
 For citations please refer to: https://tddft.org/programs/libxc/

 This ORCA versions uses:
   CBLAS   interface :  Fast vector & matrix operations
   LAPACKE interface :  Fast linear algebra routines
   SCALAPACK package :  Parallel linear algebra routines
   Shared memory     :  Shared parallel matrices
   BLAS/LAPACK       :  OpenBLAS 0.3.15  USE64BITINT DYNAMIC_ARCH NO_AFFINITY Haswell SINGLE_THREADED
        Core in use  :  Haswell
   Copyright (c) 2011-2014, The OpenBLAS Project




***************************************
The coordinates will be read from file: 6c.xyz
***************************************


Your calculation utilizes the geometrical counterpoise correction gCP
Please cite in your paper:
H.Kruse, S. Grimme J.Chem.Phys., 136, (2012), 154101 
   

Your calculation utilizes the atom-pairwise dispersion correction
with the Becke-Johnson damping scheme (D3BJ)
Cite in your paper:
S.Grimme, S.Ehrlich, L.Goerigk, J Comput Chem, (2011), 32, 1456–1465 
S.Grimme, J.Antony, S.Ehrlich and H.Krieg, J.Chem.Phys., 132, (2010), 154104 
   

Your calculation employs the composite approach PBEh-3c.
Please cite in your paper:
S. Grimme, J. G. Brandenburg, C. Bannwarth, A. Hansen J.Chem.Phys., 143, (2015), 054107 
   

================================================================================

----- Orbital basis set information -----
Your calculation utilizes the basis: def2-mSVP

----- AuxJ basis set information -----
Your calculation utilizes the auxiliary basis: def2/J
   F. Weigend, Phys. Chem. Chem. Phys. 8, 1057 (2006).

================================================================================
                                        WARNINGS
                       Please study these warnings very carefully!
================================================================================


INFO   : the flag for use of the SHARK integral package has been found!

================================================================================
                                       INPUT FILE
================================================================================
NAME = pbeh-3c.inp
|  1> ! PBEh-3c def2/J TightSCF DefGrid3
|  2> 
|  3> %maxcore 60000
|  4> 
|  5> %pal
|  6> nprocs 4
|  7> end
|  8> 
|  9> *xyzfile 0 1 6c.xyz
| 10> 
| 11>                          ****END OF INPUT****
================================================================================

                       ****************************
                       * Single Point Calculation *
                       ****************************

---------------------------------
CARTESIAN COORDINATES (ANGSTROEM)
---------------------------------
  N      0.156611   -1.517814    0.043797
  C      0.993343   -0.437797   -0.033580
  C      0.564436    0.882040   -0.064884
  C     -0.814328    1.249795   -0.051314
  N     -1.588639    0.081734    0.008482
  C     -1.100043   -1.204980    0.053391
  N      1.694565    1.641979   -0.130323
  C      2.740138    0.768315   -0.133804
  N      2.359053   -0.494019   -0.075272
  O     -1.317806    2.361461   -0.093139
  N     -2.065258   -2.194407    0.045990
  H     -2.584638    0.229671   -0.060800
  H      3.760914    1.105908   -0.179770
  H     -2.872641   -2.018987    0.621511
  H     -1.657260   -3.099076    0.220269
  H      1.731553    2.646180   -0.170554

----------------------------
CARTESIAN COORDINATES (A.U.)
----------------------------
  NO LB      ZA    FRAG     MASS         X           Y           Z
   0 N     7.0000    0    14.007    0.295951   -2.868253    0.082765
   1 C     6.0000    0    12.011    1.877146   -0.827316   -0.063457
   2 C     6.0000    0    12.011    1.066629    1.666813   -0.122613
   3 C     6.0000    0    12.011   -1.538857    2.361770   -0.096970
   4 N     7.0000    0    14.007   -3.002094    0.154455    0.016029
   5 C     6.0000    0    12.011   -2.078780   -2.277083    0.100895
   6 N     7.0000    0    14.007    3.202265    3.102891   -0.246275
   7 C     6.0000    0    12.011    5.178110    1.451905   -0.252853
   8 N     7.0000    0    14.007    4.457964   -0.933561   -0.142243
   9 O     8.0000    0    15.999   -2.490292    4.462514   -0.176008
  10 N     7.0000    0    14.007   -3.902771   -4.146829    0.086908
  11 H     1.0000    0     1.008   -4.884258    0.434015   -0.114895
  12 H     1.0000    0     1.008    7.107098    2.089863   -0.339716
  13 H     1.0000    0     1.008   -5.428505   -3.815333    1.174485
  14 H     1.0000    0     1.008   -3.131767   -5.856406    0.416248
  15 H     1.0000    0     1.008    3.272160    5.000556   -0.322300

--------------------------------
INTERNAL COORDINATES (ANGSTROEM)
--------------------------------
 N      0   0   0     0.000000000000     0.00000000     0.00000000
 C      1   0   0     1.368409548602     0.00000000     0.00000000
 C      2   1   0     1.388131761391   124.24712793     0.00000000
 C      3   2   1     1.427031347705   122.91154811   358.44386179
 N      4   3   2     1.402676016681   108.61192319     0.50250935
 C      1   2   3     1.295042829605   113.77234555     1.60846698
 N      3   2   1     1.363445386990   105.95722058   179.45019826
 C      7   3   2     1.362542716123   106.18815448   359.91155601
 N      8   7   3     1.319901403947   113.05198406     0.00000000
 O      4   3   2     1.221081538082   129.24692069   181.08861770
 N      6   1   2     1.382266183768   120.30710056   176.04128052
 H      5   4   3     1.009306063805   114.81963955   185.22824791
 H      8   7   3     1.076135294947   121.79301188   180.03240102
 H     11   6   1     1.006908407527   115.60407591   141.14809816
 H     11   6   1     1.007601903149   111.03892208    11.47097217
 H      7   3   2     1.005686639769   126.08238884   179.72513032

---------------------------
INTERNAL COORDINATES (A.U.)
---------------------------
 N      0   0   0     0.000000000000     0.00000000     0.00000000
 C      1   0   0     2.585919285900     0.00000000     0.00000000
 C      2   1   0     2.623188866827   124.24712793     0.00000000
 C      3   2   1     2.696698431684   122.91154811   358.44386179
 N      4   3   2     2.650673526147   108.61192319     0.50250935
 C      1   2   3     2.447276279651   113.77234555     1.60846698
 N      3   2   1     2.576538379968   105.95722058   179.45019826
 C      7   3   2     2.574832579242   106.18815448   359.91155601
 N      8   7   3     2.494252177238   113.05198406     0.00000000
 O      4   3   2     2.307509694162   129.24692069   181.08861770
 N      6   1   2     2.612104531502   120.30710056   176.04128052
 H      5   4   3     1.907312045897   114.81963955   185.22824791
 H      8   7   3     2.033600990496   121.79301188   180.03240102
 H     11   6   1     1.902781132168   115.60407591   141.14809816
 H     11   6   1     1.904091648970   111.03892208    11.47097217
 H      7   3   2     1.900472325708   126.08238884   179.72513032

---------------------
BASIS SET INFORMATION
---------------------
There are 4 groups of distinct atoms

 Group   1 Type N   : 8s4p1d contracted to 4s2p1d pattern {5111/31/1}
 Group   2 Type C   : 8s4p1d contracted to 4s2p1d pattern {5111/31/1}
 Group   3 Type O   : 8s4p1d contracted to 4s2p1d pattern {5111/31/1}
 Group   4 Type H   : 4s contracted to 2s pattern {31}

Atom   0N    basis set group =>   1
Atom   1C    basis set group =>   2
Atom   2C    basis set group =>   2
Atom   3C    basis set group =>   2
Atom   4N    basis set group =>   1
Atom   5C    basis set group =>   2
Atom   6N    basis set group =>   1
Atom   7C    basis set group =>   2
Atom   8N    basis set group =>   1
Atom   9O    basis set group =>   3
Atom  10N    basis set group =>   1
Atom  11H    basis set group =>   4
Atom  12H    basis set group =>   4
Atom  13H    basis set group =>   4
Atom  14H    basis set group =>   4
Atom  15H    basis set group =>   4
---------------------------------
AUXILIARY/J BASIS SET INFORMATION
---------------------------------
There are 4 groups of distinct atoms

 Group   1 Type N   : 12s5p4d2f1g contracted to 6s4p3d1f1g pattern {711111/2111/211/2/1}
 Group   2 Type C   : 12s5p4d2f1g contracted to 6s4p3d1f1g pattern {711111/2111/211/2/1}
 Group   3 Type O   : 12s5p4d2f1g contracted to 6s4p3d1f1g pattern {711111/2111/211/2/1}
 Group   4 Type H   : 5s2p1d contracted to 3s1p1d pattern {311/2/1}

Atom   0N    basis set group =>   1
Atom   1C    basis set group =>   2
Atom   2C    basis set group =>   2
Atom   3C    basis set group =>   2
Atom   4N    basis set group =>   1
Atom   5C    basis set group =>   2
Atom   6N    basis set group =>   1
Atom   7C    basis set group =>   2
Atom   8N    basis set group =>   1
Atom   9O    basis set group =>   3
Atom  10N    basis set group =>   1
Atom  11H    basis set group =>   4
Atom  12H    basis set group =>   4
Atom  13H    basis set group =>   4
Atom  14H    basis set group =>   4
Atom  15H    basis set group =>   4


           ************************************************************
           *        Program running with 4 parallel MPI-processes     *
           *              working on a common directory               *
           ************************************************************
------------------------------------------------------------------------------
                           ORCA GTO INTEGRAL CALCULATION
                           -- RI-GTO INTEGRALS CHOSEN --
------------------------------------------------------------------------------
------------------------------------------------------------------------------
                   ___                                                        
                  /   \      - P O W E R E D   B Y -                         
                 /     \                                                     
                 |  |  |   _    _      __       _____    __    __             
                 |  |  |  | |  | |    /  \     |  _  \  |  |  /  |          
                  \  \/   | |  | |   /    \    | | | |  |  | /  /          
                 / \  \   | |__| |  /  /\  \   | |_| |  |  |/  /          
                |  |  |   |  __  | /  /__\  \  |    /   |      \           
                |  |  |   | |  | | |   __   |  |    \   |  |\   \          
                \     /   | |  | | |  |  |  |  | |\  \  |  | \   \       
                 \___/    |_|  |_| |__|  |__|  |_| \__\ |__|  \__/        
                                                                              
                      - O R C A' S   B I G   F R I E N D -                    
                                      &                                       
                       - I N T E G R A L  F E E D E R -                       
                                                                              
 v1 FN, 2020, v2 2021                                                         
------------------------------------------------------------------------------


Reading SHARK input file pbeh-3c.SHARKINP.tmp ... ok
----------------------
SHARK INTEGRAL PACKAGE
----------------------

Number of atoms                             ...     16
Number of basis functions                   ...    175
Number of shells                            ...     87
Maximum angular momentum                    ...      2
Integral batch strategy                     ... SHARK/LIBINT Hybrid
RI-J (if used) integral strategy            ... SPLIT-RIJ (Revised 2003 algorithm where possible)
Printlevel                                  ...      1
Contraction scheme used                     ... SEGMENTED contraction
Coulomb Range Separation                    ... NOT USED
Exchange Range Separation                   ... NOT USED
Finite Nucleus Model                        ... NOT USED
Auxiliary Coulomb fitting basis             ... AVAILABLE
   # of basis functions in Aux-J            ...    594
   # of shells in Aux-J                     ...    190
   Maximum angular momentum in Aux-J        ...      4
Auxiliary J/K fitting basis                 ... NOT available
Auxiliary Correlation fitting basis         ... NOT available
Auxiliary 'external' fitting basis          ... NOT available
Integral threshold                          ...     2.500000e-11
Primitive cut-off                           ...     2.500000e-12
Primitive pair pre-selection threshold      ...     2.500000e-12

Calculating pre-screening integrals         ... done (  0.2 sec) Dimension = 87
Organizing shell pair data                  ... done (  0.2 sec)
Shell pair information
Total number of shell pairs                 ...      3828
Shell pairs after pre-screening             ...      3259
Total number of primitive shell pairs       ...     13524
Primitive shell pairs kept                  ...      8041
          la=0 lb=0:   1134 shell pairs
          la=1 lb=0:   1090 shell pairs
          la=1 lb=1:    248 shell pairs
          la=2 lb=0:    489 shell pairs
          la=2 lb=1:    234 shell pairs
          la=2 lb=2:     64 shell pairs

Calculating one electron integrals          ... done (  0.0 sec)
Calculating RI/J V-Matrix + Cholesky decomp.... done (  0.6 sec)
Calculating Nuclear repulsion               ... done (  0.0 sec) ENN=    597.205360163780 Eh

SHARK setup successfully completed in   2.7 seconds

Maximum memory used throughout the entire GTOINT-calculation: 11.9 MB


           ************************************************************
           *        Program running with 4 parallel MPI-processes     *
           *              working on a common directory               *
           ************************************************************
-------------------------------------------------------------------------------
                                 ORCA SCF
-------------------------------------------------------------------------------

------------
SCF SETTINGS
------------
Hamiltonian:
 Density Functional     Method          .... DFT(GTOs)
 Exchange Functional    Exchange        .... PBE
   PBE kappa parameter   XKappa         ....  1.024500
   PBE mue parameter    XMuePBE         ....  0.123457
 Correlation Functional Correlation     .... PBE
   PBE beta parameter  CBetaPBE         ....  0.030000
 LDA part of GGA corr.  LDAOpt          .... PW91-LDA
 Gradients option       PostSCFGGA      .... off
 Hybrid DFT is turned on
   Fraction HF Exchange ScalHFX         ....  0.420000
   Scaling of DF-GGA-X  ScalDFX         ....  0.580000
   Scaling of DF-GGA-C  ScalDFC         ....  1.000000
   Scaling of DF-LDA-C  ScalLDAC        ....  1.000000
   Perturbative correction              ....  0.000000
   Density functional embedding theory  .... OFF
 RI-approximation to the Coulomb term is turned on
   Number of AuxJ basis functions       .... 594
   RIJ-ON(X) (HFX calculated with O(N)) .... on
   Number of AuxJ basis functions       .... 594
   RIJ-COSX (HFX calculated with COS-X)).... on


General Settings:
 Integral files         IntName         .... pbeh-3c
 Hartree-Fock type      HFTyp           .... RHF
 Total Charge           Charge          ....    0
 Multiplicity           Mult            ....    1
 Number of Electrons    NEL             ....   78
 Basis Dimension        Dim             ....  175
 Nuclear Repulsion      ENuc            ....    597.2053601638 Eh

Convergence Acceleration:
 DIIS                   CNVDIIS         .... on
   Start iteration      DIISMaxIt       ....    12
   Startup error        DIISStart       ....  0.200000
   # of expansion vecs  DIISMaxEq       ....     5
   Bias factor          DIISBfac        ....   1.050
   Max. coefficient     DIISMaxC        ....  10.000
 Trust-Rad. Augm. Hess. CNVTRAH         .... auto
   Auto Start mean grad. ratio tolernc. ....  1.125000
   Auto Start start iteration           ....    20
   Auto Start num. interpolation iter.  ....    10
   Max. Number of Micro iterations      ....    16
   Max. Number of Macro iterations      .... Maxiter - #DIIS iter
   Number of Davidson start vectors     ....     2
   Converg. threshold I  (grad. norm)   ....   1.000e-05
   Converg. threshold II (energy diff.) ....   1.000e-08
   Grad. Scal. Fac. for Micro threshold ....   0.100
   Minimum threshold for Micro iter.    ....   0.010
   NR start threshold (gradient norm)   ....   0.001
   Initial trust radius                 ....   0.400
   Minimum AH scaling param. (alpha)    ....   1.000
   Maximum AH scaling param. (alpha)    .... 1000.000
   Orbital update algorithm             .... Taylor
   White noise on init. David. guess    .... on
   Maximum white noise                  ....   0.010
   Quad. conv. algorithm                .... NR
   COSX micro iterations for RIJONX calc.... off
 SOSCF                  CNVSOSCF        .... on
   Start iteration      SOSCFMaxIt      ....   150
   Startup grad/error   SOSCFStart      ....  0.003300
 Level Shifting         CNVShift        .... on
   Level shift para.    LevelShift      ....    0.2500
   Turn off err/grad.   ShiftErr        ....    0.0010
 Zerner damping         CNVZerner       .... off
 Static damping         CNVDamp         .... on
   Fraction old density DampFac         ....    0.7000
   Max. Damping (<1)    DampMax         ....    0.9800
   Min. Damping (>=0)   DampMin         ....    0.0000
   Turn off err/grad.   DampErr         ....    0.1000
 Fernandez-Rico         CNVRico         .... off

SCF Procedure:
 Maximum # iterations   MaxIter         ....   125
 SCF integral mode      SCFMode         .... Direct
   Integral package                     .... SHARK and LIBINT hybrid scheme
 Reset frequency        DirectResetFreq ....    20
 Integral Threshold     Thresh          ....  2.500e-11 Eh
 Primitive CutOff       TCut            ....  2.500e-12 Eh

Convergence Tolerance:
 Convergence Check Mode ConvCheckMode   .... Total+1el-Energy
 Convergence forced     ConvForced      .... 0
 Energy Change          TolE            ....  1.000e-08 Eh
 1-El. energy change                    ....  1.000e-05 Eh
 Orbital Gradient       TolG            ....  1.000e-05
 Orbital Rotation angle TolX            ....  1.000e-05
 DIIS Error             TolErr          ....  5.000e-07


Diagonalization of the overlap matrix:
Smallest eigenvalue                        ... 1.465e-03
Time for diagonalization                   ...    0.005 sec
Threshold for overlap eigenvalues          ... 1.000e-08
Number of eigenvalues below threshold      ... 0
Time for construction of square roots      ...    0.111 sec
Total time needed                          ...    0.117 sec

--------------------------------
INITIAL GUESS: MINIMAL BASIS EHT
--------------------------------
The minimal basis has 60 functions
EHT matrix was diagonalized
Basis set overlap was calculated now projecting the orbitals
Using GuessMode=FMatrix for the initial guess
C*T matrix was formed
Effective Fockian was calculated
Effective Fockian was diagonalized
Initial density was built
                      ------------------
                      INITIAL GUESS DONE
                      ------------------
-------------------
DFT GRID GENERATION
-------------------

General Integration Accuracy     IntAcc      ... 4.959
Radial Grid Type                 RadialGrid  ... OptM3 with GC (2021)
Angular Grid (max. ang.)         AngularGrid ... 6 (Lebedev-590)
Angular grid pruning method      GridPruning ... 4 (adaptive)
Weight generation scheme         WeightScheme... Becke
Basis function cutoff            BFCut       ... 1.0000e-11
Integration weight cutoff        WCut        ... 1.0000e-14
Angular grids for H and He will be reduced by one unit
Partially contracted basis set               ... off
Rotationally invariant grid construction     ... off

Total number of grid points                  ...   200838
Total number of batches                      ...     3146
Average number of points per batch           ...       63
Average number of grid points per atom       ...    12552
Time for grid setup =    5.413 sec

--------------------
COSX GRID GENERATION
--------------------

GRIDX 1
-------
General Integration Accuracy     IntAcc      ... 4.020
Radial Grid Type                 RadialGrid  ... OptM3 with GC (2021)
Angular Grid (max. ang.)         AngularGrid ... 2 (Lebedev-110)
Angular grid pruning method      GridPruning ... 4 (adaptive)
Weight generation scheme         WeightScheme... Becke
Basis function cutoff            BFCut       ... 1.0000e-11
Integration weight cutoff        WCut        ... 1.0000e-14
Angular grids for H and He will be reduced by one unit
Partially contracted basis set               ... on
Rotationally invariant grid construction     ... off

Total number of grid points                  ...    23631
Total number of batches                      ...      378
Average number of points per batch           ...       62
Average number of grid points per atom       ...     1477
UseSFitting                                  ... on

GRIDX 2
-------
General Integration Accuracy     IntAcc      ... 4.338
Radial Grid Type                 RadialGrid  ... OptM3 with GC (2021)
Angular Grid (max. ang.)         AngularGrid ... 3 (Lebedev-194)
Angular grid pruning method      GridPruning ... 4 (adaptive)
Weight generation scheme         WeightScheme... Becke
Basis function cutoff            BFCut       ... 1.0000e-11
Integration weight cutoff        WCut        ... 1.0000e-14
Angular grids for H and He will be reduced by one unit
Partially contracted basis set               ... on
Rotationally invariant grid construction     ... off

Total number of grid points                  ...    52116
Total number of batches                      ...      824
Average number of points per batch           ...       63
Average number of grid points per atom       ...     3257
UseSFitting                                  ... on

GRIDX 3
-------
General Integration Accuracy     IntAcc      ... 4.871
Radial Grid Type                 RadialGrid  ... OptM3 with GC (2021)
Angular Grid (max. ang.)         AngularGrid ... 4 (Lebedev-302)
Angular grid pruning method      GridPruning ... 4 (adaptive)
Weight generation scheme         WeightScheme... Becke
Basis function cutoff            BFCut       ... 1.0000e-11
Integration weight cutoff        WCut        ... 1.0000e-14
Angular grids for H and He will be reduced by one unit
Partially contracted basis set               ... on
Rotationally invariant grid construction     ... off

Total number of grid points                  ...    95881
Total number of batches                      ...     1505
Average number of points per batch           ...       63
Average number of grid points per atom       ...     5993
UseSFitting                                  ... on

Time for X-Grid setup             =    6.561 sec

--------------
SCF ITERATIONS
--------------
ITER       Energy         Delta-E        Max-DP      RMS-DP      [F,P]     Damp
               ***  Starting incremental Fock matrix formation  ***
  0   -539.3963851750   0.000000000000 0.25064457  0.00792166  0.5805418 0.7000
  1   -540.1651845904  -0.768799415334 0.15286659  0.00452016  0.2980686 0.7000
  2   -540.5360468727  -0.370862282369 0.07834229  0.00275905  0.2106188 0.7000
                               ***Turning on DIIS***
  3   -540.7918516911  -0.255804818367 0.08209795  0.00196726  0.1472946 0.7000
  4   -540.9766888731  -0.184837181973 0.06295722  0.00144539  0.1025650 0.7000
  5   -541.1074411061  -0.130752233008 0.14262283  0.00345773  0.0721020 0.0000
  6   -541.4179457873  -0.310504681236 0.00732708  0.00016083  0.0057483 0.0000
                      *** Initiating the SOSCF procedure ***
                           *** Shutting down DIIS ***
                      *** Re-Reading the Fockian *** 
                      *** Removing any level shift *** 
ITER      Energy       Delta-E        Grad      Rot      Max-DP    RMS-DP
  7   -541.41814156  -0.0001957688  0.000648  0.000648  0.002101  0.000071
               *** Restarting incremental Fock matrix formation ***
  8   -541.41820513  -0.0000635785  0.000666  0.001927  0.002261  0.000057
  9   -541.41821776  -0.0000126263  0.000245  0.000711  0.002253  0.000056
 10   -541.41821789  -0.0000001270  0.000272  0.000222  0.001011  0.000025
 11   -541.41822031  -0.0000024230  0.000028  0.000078  0.000161  0.000003
 12   -541.41822031   0.0000000019  0.000027  0.000035  0.000067  0.000002
 13   -541.41822035  -0.0000000408  0.000003  0.000011  0.000016  0.000000
                  ***Gradient check signals convergence***
              ***Rediagonalizing the Fockian in SOSCF/NRSCF***

               *****************************************************
               *                     SUCCESS                       *
               *           SCF CONVERGED AFTER  14 CYCLES          *
               *****************************************************

Old exchange energy                            =    -29.002724183 Eh
New exchange energy                            =    -29.002728108 Eh
Exchange energy change after final integration =     -0.000003925 Eh
Total energy after final integration           =   -541.418224275 Eh
Final COS-X integration done in                =    10.995 sec

----------------
TOTAL SCF ENERGY
----------------

Total Energy       :         -541.41822427 Eh          -14732.73888 eV

Components:
Nuclear Repulsion  :          597.20536016 Eh           16250.78402 eV
Electronic Energy  :        -1138.62358444 Eh          -30983.52290 eV
One Electron Energy:        -1920.80830793 Eh          -52267.85131 eV
Two Electron Energy:          782.18472349 Eh           21284.32840 eV
Max COSX asymmetry :            0.00000109 Eh               0.00003 eV

Virial components:
Potential Energy   :        -1078.93217558 Eh          -29359.23709 eV
Kinetic Energy     :          537.51395131 Eh           14626.49821 eV
Virial Ratio       :            2.00726358


DFT components:
N(Alpha)           :       39.000000574573 electrons
N(Beta)            :       39.000000574573 electrons
N(Total)           :       78.000001149146 electrons
E(X)               :      -38.630834047775 Eh       
E(C)               :       -3.504583330609 Eh       
E(XC)              :      -42.135417378383 Eh       
DFET-embed. en.    :        0.000000000000 Eh       

---------------
SCF CONVERGENCE
---------------

  Last Energy change         ...   -5.1762e-10  Tolerance :   1.0000e-08
  Last MAX-Density change    ...    1.4433e-15  Tolerance :   1.0000e-07
  Last RMS-Density change    ...    4.4429e-17  Tolerance :   5.0000e-09
  Last Orbital Gradient      ...    2.3935e-06  Tolerance :   1.0000e-05
  Last Orbital Rotation      ...    2.5404e-06  Tolerance :   1.0000e-05

             **** THE GBW FILE WAS UPDATED (pbeh-3c.gbw) ****
             **** DENSITY pbeh-3c.scfp WAS UPDATED ****
             **** ENERGY FILE WAS UPDATED (pbeh-3c.en.tmp) ****
             **** THE GBW FILE WAS UPDATED (pbeh-3c.gbw) ****
             **** DENSITY pbeh-3c.scfp WAS UPDATED ****
----------------
ORBITAL ENERGIES
----------------

  NO   OCC          E(Eh)            E(eV) 
   0   2.0000     -19.469186      -529.7835 
   1   2.0000     -14.711093      -400.3092 
   2   2.0000     -14.703547      -400.1038 
   3   2.0000     -14.668371      -399.1467 
   4   2.0000     -14.631311      -398.1382 
   5   2.0000     -14.629552      -398.0903 
   6   2.0000     -10.577742      -287.8350 
   7   2.0000     -10.569556      -287.6123 
   8   2.0000     -10.521504      -286.3047 
   9   2.0000     -10.508136      -285.9409 
  10   2.0000     -10.479904      -285.1727 
  11   2.0000      -1.169587       -31.8261 
  12   2.0000      -1.139900       -31.0183 
  13   2.0000      -1.116639       -30.3853 
  14   2.0000      -1.015836       -27.6423 
  15   2.0000      -1.014315       -27.6009 
  16   2.0000      -0.974686       -26.5226 
  17   2.0000      -0.861141       -23.4328 
  18   2.0000      -0.755738       -20.5647 
  19   2.0000      -0.743849       -20.2412 
  20   2.0000      -0.700390       -19.0586 
  21   2.0000      -0.679114       -18.4796 
  22   2.0000      -0.626392       -17.0450 
  23   2.0000      -0.608886       -16.5686 
  24   2.0000      -0.578877       -15.7520 
  25   2.0000      -0.558299       -15.1921 
  26   2.0000      -0.544546       -14.8179 
  27   2.0000      -0.527877       -14.3643 
  28   2.0000      -0.501081       -13.6351 
  29   2.0000      -0.492944       -13.4137 
  30   2.0000      -0.490741       -13.3537 
  31   2.0000      -0.451927       -12.2976 
  32   2.0000      -0.375243       -10.2109 
  33   2.0000      -0.364547        -9.9198 
  34   2.0000      -0.346241        -9.4217 
  35   2.0000      -0.337803        -9.1921 
  36   2.0000      -0.322379        -8.7724 
  37   2.0000      -0.320503        -8.7213 
  38   2.0000      -0.256488        -6.9794 
  39   0.0000      -0.000588        -0.0160 
  40   0.0000       0.036090         0.9821 
  41   0.0000       0.082538         2.2460 
  42   0.0000       0.105307         2.8656 
  43   0.0000       0.125991         3.4284 
  44   0.0000       0.148566         4.0427 
  45   0.0000       0.172781         4.7016 
  46   0.0000       0.187455         5.1009 
  47   0.0000       0.208180         5.6649 
  48   0.0000       0.236419         6.4333 
  49   0.0000       0.247523         6.7354 
  50   0.0000       0.275417         7.4945 
  51   0.0000       0.281044         7.6476 
  52   0.0000       0.310442         8.4475 
  53   0.0000       0.342166         9.3108 
  54   0.0000       0.347239         9.4489 
  55   0.0000       0.388821        10.5803 
  56   0.0000       0.414869        11.2892 
  57   0.0000       0.420774        11.4498 
  58   0.0000       0.474820        12.9205 
  59   0.0000       0.481466        13.1014 
  60   0.0000       0.502530        13.6745 
  61   0.0000       0.509436        13.8625 
  62   0.0000       0.526343        14.3225 
  63   0.0000       0.559142        15.2150 
  64   0.0000       0.573011        15.5924 
  65   0.0000       0.579347        15.7648 
  66   0.0000       0.585423        15.9302 
  67   0.0000       0.627733        17.0815 
  68   0.0000       0.629586        17.1319 
  69   0.0000       0.653024        17.7697 
  70   0.0000       0.689727        18.7684 
  71   0.0000       0.693008        18.8577 
  72   0.0000       0.695648        18.9295 
  73   0.0000       0.726947        19.7812 
  74   0.0000       0.734889        19.9973 
  75   0.0000       0.776892        21.1403 
  76   0.0000       0.826380        22.4869 
  77   0.0000       0.835474        22.7344 
  78   0.0000       0.856701        23.3120 
  79   0.0000       0.867646        23.6099 
  80   0.0000       0.888969        24.1901 
  81   0.0000       0.912678        24.8352 
  82   0.0000       0.927937        25.2504 
  83   0.0000       0.933881        25.4122 
  84   0.0000       0.960125        26.1263 
  85   0.0000       0.967756        26.3340 
  86   0.0000       0.981156        26.6986 
  87   0.0000       0.987721        26.8773 
  88   0.0000       1.008000        27.4291 
  89   0.0000       1.023335        27.8464 
  90   0.0000       1.029784        28.0219 
  91   0.0000       1.052692        28.6452 
  92   0.0000       1.070308        29.1246 
  93   0.0000       1.079166        29.3656 
  94   0.0000       1.118228        30.4285 
  95   0.0000       1.157233        31.4899 
  96   0.0000       1.196663        32.5629 
  97   0.0000       1.220932        33.2232 
  98   0.0000       1.246631        33.9226 
  99   0.0000       1.269466        34.5439 
 100   0.0000       1.318662        35.8826 
 101   0.0000       1.348260        36.6880 
 102   0.0000       1.355702        36.8905 
 103   0.0000       1.375189        37.4208 
 104   0.0000       1.387976        37.7687 
 105   0.0000       1.406362        38.2690 
 106   0.0000       1.438118        39.1332 
 107   0.0000       1.450511        39.4704 
 108   0.0000       1.488878        40.5144 
 109   0.0000       1.513674        41.1892 
 110   0.0000       1.548760        42.1439 
 111   0.0000       1.617203        44.0063 
 112   0.0000       1.660864        45.1944 
 113   0.0000       1.695435        46.1351 
 114   0.0000       1.702575        46.3294 
 115   0.0000       1.751124        47.6505 
 116   0.0000       1.778462        48.3944 
 117   0.0000       1.798128        48.9296 
 118   0.0000       1.810870        49.2763 
 119   0.0000       1.840905        50.0936 
 120   0.0000       1.864425        50.7336 
 121   0.0000       1.872943        50.9654 
 122   0.0000       1.913434        52.0672 
 123   0.0000       1.948836        53.0305 
 124   0.0000       1.977746        53.8172 
 125   0.0000       2.029592        55.2280 
 126   0.0000       2.048661        55.7469 
 127   0.0000       2.082551        56.6691 
 128   0.0000       2.099781        57.1380 
 129   0.0000       2.131187        57.9926 
 130   0.0000       2.168428        59.0059 
 131   0.0000       2.186885        59.5082 
 132   0.0000       2.227060        60.6014 
 133   0.0000       2.250351        61.2352 
 134   0.0000       2.260663        61.5158 
 135   0.0000       2.271454        61.8094 
 136   0.0000       2.281743        62.0894 
 137   0.0000       2.304932        62.7204 
 138   0.0000       2.325062        63.2682 
 139   0.0000       2.364993        64.3547 
 140   0.0000       2.396128        65.2020 
 141   0.0000       2.437791        66.3357 
 142   0.0000       2.462606        67.0109 
 143   0.0000       2.479090        67.4595 
 144   0.0000       2.538192        69.0677 
 145   0.0000       2.551326        69.4251 
 146   0.0000       2.570375        69.9435 
 147   0.0000       2.601083        70.7791 
 148   0.0000       2.625882        71.4539 
 149   0.0000       2.660956        72.4083 
 150   0.0000       2.698194        73.4216 
 151   0.0000       2.726323        74.1870 
 152   0.0000       2.748405        74.7879 
 153   0.0000       2.789619        75.9094 
 154   0.0000       2.812269        76.5257 
 155   0.0000       2.852983        77.6336 
 156   0.0000       2.954989        80.4093 
 157   0.0000       2.984531        81.2132 
 158   0.0000       3.038929        82.6935 
 159   0.0000       3.064470        83.3885 
 160   0.0000       3.098305        84.3092 
 161   0.0000       3.237781        88.1045 
 162   0.0000       3.403836        92.6231 
 163   0.0000       3.568247        97.0969 
 164   0.0000      13.625480       370.7682 
 165   0.0000      13.790439       375.2569 
 166   0.0000      13.916491       378.6870 
 167   0.0000      14.099412       383.6645 
 168   0.0000      14.383802       391.4031 
 169   0.0000      19.178596       521.8761 
 170   0.0000      19.321831       525.7737 
 171   0.0000      19.378400       527.3131 
 172   0.0000      19.469207       529.7841 
 173   0.0000      19.616606       533.7950 
 174   0.0000      25.789298       701.7625 

                    ********************************
                    * MULLIKEN POPULATION ANALYSIS *
                    ********************************

-----------------------
MULLIKEN ATOMIC CHARGES
-----------------------
   0 N :   -0.441767
   1 C :    0.320710
   2 C :    0.101689
   3 C :    0.509817
   4 N :   -0.718168
   5 C :    0.625202
   6 N :   -0.639403
   7 C :    0.119647
   8 N :   -0.391342
   9 O :   -0.414456
  10 N :   -0.809294
  11 H :    0.380733
  12 H :    0.245542
  13 H :    0.349499
  14 H :    0.376677
  15 H :    0.384915
Sum of atomic charges:   -0.0000000

--------------------------------
MULLIKEN REDUCED ORBITAL CHARGES
--------------------------------
  0 N s       :     3.588661  s :     3.588661
      pz      :     1.287229  p :     3.810880
      px      :     1.035684
      py      :     1.487966
      dz2     :     0.004959  d :     0.042227
      dxz     :     0.007890
      dyz     :     0.006571
      dx2y2   :     0.009795
      dxy     :     0.013012
  1 C s       :     3.025588  s :     3.025588
      pz      :     0.955146  p :     2.566526
      px      :     0.745406
      py      :     0.865974
      dz2     :     0.005269  d :     0.087175
      dxz     :     0.013916
      dyz     :     0.011436
      dx2y2   :     0.029442
      dxy     :     0.027113
  2 C s       :     3.097844  s :     3.097844
      pz      :     1.165719  p :     2.742333
      px      :     0.735269
      py      :     0.841345
      dz2     :     0.004951  d :     0.058134
      dxz     :     0.008809
      dyz     :     0.008739
      dx2y2   :     0.016704
      dxy     :     0.018930
  3 C s       :     2.922141  s :     2.922141
      pz      :     0.808436  p :     2.444134
      px      :     0.885914
      py      :     0.749784
      dz2     :     0.006251  d :     0.123908
      dxz     :     0.011312
      dyz     :     0.026013
      dx2y2   :     0.038649
      dxy     :     0.041682
  4 N s       :     3.587395  s :     3.587395
      pz      :     1.654001  p :     4.097729
      px      :     1.274032
      py      :     1.169696
      dz2     :     0.004424  d :     0.033045
      dxz     :     0.001471
      dyz     :     0.005949
      dx2y2   :     0.013323
      dxy     :     0.007878
  5 C s       :     2.873008  s :     2.873008
      pz      :     0.867449  p :     2.391047
      px      :     0.803560
      py      :     0.720038
      dz2     :     0.005803  d :     0.110743
      dxz     :     0.021614
      dyz     :     0.016097
      dx2y2   :     0.028191
      dxy     :     0.039037
  6 N s       :     3.593631  s :     3.593631
      pz      :     1.574693  p :     4.003524
      px      :     1.177086
      py      :     1.251745
      dz2     :     0.004361  d :     0.042248
      dxz     :     0.010259
      dyz     :     0.003069
      dx2y2   :     0.014383
      dxy     :     0.010176
  7 C s       :     3.110933  s :     3.110933
      pz      :     0.957972  p :     2.689913
      px      :     0.883496
      py      :     0.848445
      dz2     :     0.005764  d :     0.079507
      dxz     :     0.005731
      dyz     :     0.015655
      dx2y2   :     0.021637
      dxy     :     0.030720
  8 N s       :     3.621648  s :     3.621648
      pz      :     1.200084  p :     3.724203
      px      :     1.199176
      py      :     1.324942
      dz2     :     0.005228  d :     0.045492
      dxz     :     0.006081
      dyz     :     0.009397
      dx2y2   :     0.017594
      dxy     :     0.007192
  9 O s       :     3.756995  s :     3.756995
      pz      :     1.478681  p :     4.627597
      px      :     1.708712
      py      :     1.440204
      dz2     :     0.002807  d :     0.029863
      dxz     :     0.001908
      dyz     :     0.009311
      dx2y2   :     0.007979
      dxy     :     0.007859
 10 N s       :     3.613727  s :     3.613727
      pz      :     1.683445  p :     4.163171
      px      :     1.262025
      py      :     1.217701
      dz2     :     0.003574  d :     0.032396
      dxz     :     0.009632
      dyz     :     0.004208
      dx2y2   :     0.005450
      dxy     :     0.009532
 11 H s       :     0.619267  s :     0.619267
 12 H s       :     0.754458  s :     0.754458
 13 H s       :     0.650501  s :     0.650501
 14 H s       :     0.623323  s :     0.623323
 15 H s       :     0.615085  s :     0.615085


                     *******************************
                     * LOEWDIN POPULATION ANALYSIS *
                     *******************************

----------------------
LOEWDIN ATOMIC CHARGES
----------------------
   0 N :   -0.205903
   1 C :    0.040730
   2 C :   -0.110778
   3 C :    0.104236
   4 N :   -0.193035
   5 C :    0.129808
   6 N :   -0.126835
   7 C :   -0.004959
   8 N :   -0.175188
   9 O :   -0.274191
  10 N :   -0.387763
  11 H :    0.274741
  12 H :    0.136507
  13 H :    0.248557
  14 H :    0.265575
  15 H :    0.278498

-------------------------------
LOEWDIN REDUCED ORBITAL CHARGES
-------------------------------
  0 N s       :     3.195815  s :     3.195815
      pz      :     1.276067  p :     3.921966
      px      :     1.157354
      py      :     1.488544
      dz2     :     0.009352  d :     0.088122
      dxz     :     0.015325
      dyz     :     0.008429
      dx2y2   :     0.025304
      dxy     :     0.029712
  1 C s       :     2.809077  s :     2.809077
      pz      :     0.948026  p :     2.952876
      px      :     0.979395
      py      :     1.025455
      dz2     :     0.011214  d :     0.197317
      dxz     :     0.025983
      dyz     :     0.023164
      dx2y2   :     0.072714
      dxy     :     0.064242
  2 C s       :     2.833465  s :     2.833465
      pz      :     1.124919  p :     3.135768
      px      :     0.994063
      py      :     1.016786
      dz2     :     0.011514  d :     0.141545
      dxz     :     0.017741
      dyz     :     0.018247
      dx2y2   :     0.044851
      dxy     :     0.049192
  3 C s       :     2.805397  s :     2.805397
      pz      :     0.823739  p :     2.805796
      px      :     1.011069
      py      :     0.970988
      dz2     :     0.015219  d :     0.284571
      dxz     :     0.022668
      dyz     :     0.052640
      dx2y2   :     0.091770
      dxy     :     0.102274
  4 N s       :     3.110061  s :     3.110061
      pz      :     1.593145  p :     4.003830
      px      :     1.215416
      py      :     1.195269
      dz2     :     0.007114  d :     0.079144
      dxz     :     0.002454
      dyz     :     0.012636
      dx2y2   :     0.032416
      dxy     :     0.024525
  5 C s       :     2.787893  s :     2.787893
      pz      :     0.874866  p :     2.835386
      px      :     1.023278
      py      :     0.937242
      dz2     :     0.013184  d :     0.246913
      dxz     :     0.042322
      dyz     :     0.033300
      dx2y2   :     0.064019
      dxy     :     0.094089
  6 N s       :     3.081546  s :     3.081546
      pz      :     1.524004  p :     3.946900
      px      :     1.216173
      py      :     1.206723
      dz2     :     0.006227  d :     0.098389
      dxz     :     0.022841
      dyz     :     0.005032
      dx2y2   :     0.033667
      dxy     :     0.030621
  7 C s       :     2.875116  s :     2.875116
      pz      :     0.962728  p :     2.960588
      px      :     1.009633
      py      :     0.988228
      dz2     :     0.011001  d :     0.169254
      dxz     :     0.009480
      dyz     :     0.031268
      dx2y2   :     0.047762
      dxy     :     0.069743
  8 N s       :     3.228744  s :     3.228744
      pz      :     1.191576  p :     3.854825
      px      :     1.262841
      py      :     1.400409
      dz2     :     0.008982  d :     0.091618
      dxz     :     0.011893
      dyz     :     0.013155
      dx2y2   :     0.039943
      dxy     :     0.017645
  9 O s       :     3.518763  s :     3.518763
      pz      :     1.473084  p :     4.699248
      px      :     1.720964
      py      :     1.505200
      dz2     :     0.006722  d :     0.056180
      dxz     :     0.002632
      dyz     :     0.012737
      dx2y2   :     0.016483
      dxy     :     0.017607
 10 N s       :     3.184593  s :     3.184593
      pz      :     1.657480  p :     4.142372
      px      :     1.269090
      py      :     1.215802
      dz2     :     0.005688  d :     0.060798
      dxz     :     0.014437
      dyz     :     0.006349
      dx2y2   :     0.014109
      dxy     :     0.020216
 11 H s       :     0.725259  s :     0.725259
 12 H s       :     0.863493  s :     0.863493
 13 H s       :     0.751443  s :     0.751443
 14 H s       :     0.734425  s :     0.734425
 15 H s       :     0.721502  s :     0.721502


                      *****************************
                      * MAYER POPULATION ANALYSIS *
                      *****************************

  NA   - Mulliken gross atomic population
  ZA   - Total nuclear charge
  QA   - Mulliken gross atomic charge
  VA   - Mayer's total valence
  BVA  - Mayer's bonded valence
  FA   - Mayer's free valence

  ATOM       NA         ZA         QA         VA         BVA        FA
  0 N      7.4418     7.0000    -0.4418     3.1159     3.1159     0.0000
  1 C      5.6793     6.0000     0.3207     3.9765     3.9765    -0.0000
  2 C      5.8983     6.0000     0.1017     3.4666     3.4666    -0.0000
  3 C      5.4902     6.0000     0.5098     4.0922     4.0922    -0.0000
  4 N      7.7182     7.0000    -0.7182     3.0289     3.0289    -0.0000
  5 C      5.3748     6.0000     0.6252     3.9036     3.9036    -0.0000
  6 N      7.6394     7.0000    -0.6394     3.2036     3.2036    -0.0000
  7 C      5.8804     6.0000     0.1196     3.7956     3.7956     0.0000
  8 N      7.3913     7.0000    -0.3913     3.0940     3.0940    -0.0000
  9 O      8.4145     8.0000    -0.4145     2.2196     2.2196    -0.0000
 10 N      7.8093     7.0000    -0.8093     2.8556     2.8556     0.0000
 11 H      0.6193     1.0000     0.3807     0.8423     0.8423    -0.0000
 12 H      0.7545     1.0000     0.2455     0.9085     0.9085    -0.0000
 13 H      0.6505     1.0000     0.3495     0.8526     0.8526     0.0000
 14 H      0.6233     1.0000     0.3767     0.8438     0.8438    -0.0000
 15 H      0.6151     1.0000     0.3849     0.8366     0.8366    -0.0000

  Mayer bond orders larger than 0.100000
B(  0-N ,  1-C ) :   1.2535 B(  0-N ,  5-C ) :   1.6853 B(  1-C ,  2-C ) :   1.3033 
B(  1-C ,  8-N ) :   1.3731 B(  2-C ,  3-C ) :   1.0606 B(  2-C ,  6-N ) :   1.0078 
B(  3-C ,  4-N ) :   0.9818 B(  3-C ,  9-O ) :   2.0320 B(  4-N ,  5-C ) :   1.0849 
B(  4-N , 11-H ) :   0.8068 B(  5-C , 10-N ) :   1.0911 B(  6-N ,  7-C ) :   1.2293 
B(  6-N , 15-H ) :   0.8117 B(  7-C ,  8-N ) :   1.6035 B(  7-C , 12-H ) :   0.9090 
B( 10-N , 13-H ) :   0.8370 B( 10-N , 14-H ) :   0.8280 

-------
TIMINGS
-------

Total SCF time: 0 days 0 hours 2 min 7 sec 

Total time                  ....     127.058 sec
Sum of individual times     ....     118.867 sec  ( 93.6%)

Fock matrix formation       ....     102.728 sec  ( 80.9%)
  Split-RI-J                ....       9.946 sec  (  9.7% of F)
  Chain of spheres X        ....      53.895 sec  ( 52.5% of F)
  XC integration            ....      24.113 sec  ( 23.5% of F)
    Basis function eval.    ....       5.622 sec  ( 23.3% of XC)
    Density eval.           ....       3.531 sec  ( 14.6% of XC)
    XC-Functional eval.     ....       2.031 sec  (  8.4% of XC)
    XC-Potential eval.      ....       2.521 sec  ( 10.5% of XC)
Diagonalization             ....       0.788 sec  (  0.6%)
Density matrix formation    ....       0.086 sec  (  0.1%)
Population analysis         ....       0.032 sec  (  0.0%)
Initial guess               ....       0.139 sec  (  0.1%)
Orbital Transformation      ....       0.000 sec  (  0.0%)
Orbital Orthonormalization  ....       0.000 sec  (  0.0%)
DIIS solution               ....       2.242 sec  (  1.8%)
SOSCF solution              ....       0.879 sec  (  0.7%)
Grid generation             ....      11.974 sec  (  9.4%)

Maximum memory used throughout the entire SCF-calculation: 58.7 MB


-------------------------------------------------------------------------------
                          DFT DISPERSION CORRECTION                            
                                                                               
                              DFTD3 V3.1  Rev 1                                
                          USING Becke-Johnson damping                          
-------------------------------------------------------------------------------
The PBEh-3c composite method is recognized
Using three-body term ABC
Active option DFTDOPT                   ...         4   

molecular C6(AA) [au] = 3215.116768 


            DFT-D V3
 parameters
 s6 scaling factor         :     1.0000 
 a1 scaling factor         :     0.4860 
 s8 scaling factor         :     0.0000 
 a2 scaling factor         :     4.5000 
 Damping factor alpha9(ATM):    16.0000 
 ad hoc parameters k1-k3   :    16.0000     1.3333    -4.0000 

 Edisp/kcal,au: -6.005351805111  -0.009570136249 
 E6   /kcal   :  -6.006875605 
 E8   /kcal   :  -0.000000000 
 E6(ABC)      :   0.001523800 
 % E8         :   0.000000000 
 % E6(ABC)    :  -0.025374038 

-------------------------   ----------------
Dispersion correction           -0.009570136
-------------------------   ----------------

------------------   -----------------
gCP correction             0.030173128
------------------   -----------------

-------------------------   --------------------
FINAL SINGLE POINT ENERGY      -541.397621283217
-------------------------   --------------------


                            ***************************************
                            *     ORCA property calculations      *
                            ***************************************

                                    ---------------------
                                    Active property flags
                                    ---------------------
   (+) Dipole Moment


------------------------------------------------------------------------------
                       ORCA ELECTRIC PROPERTIES CALCULATION
------------------------------------------------------------------------------

Dipole Moment Calculation                       ... on
Quadrupole Moment Calculation                   ... off
Polarizability Calculation                      ... off
GBWName                                         ... pbeh-3c.gbw
Electron density                                ... pbeh-3c.scfp
The origin for moment calculation is the CENTER OF MASS  = ( 0.171339,  0.212133 -0.066574)

-------------
DIPOLE MOMENT
-------------
                                X             Y             Z
Electronic contribution:      1.30400       1.71890      -0.14861
Nuclear contribution   :     -1.96737      -1.57613       0.56881
                        -----------------------------------------
Total Dipole Moment    :     -0.66337       0.14276       0.42020
                        -----------------------------------------
Magnitude (a.u.)       :      0.79813
Magnitude (Debye)      :      2.02869



--------------------
Rotational spectrum 
--------------------
 
Rotational constants in cm-1:     0.064284     0.037607     0.023749 
Rotational constants in MHz :  1927.184515  1127.422046   711.964595 

 Dipole components along the rotational axes: 
x,y,z [a.u.] :    -0.526894    -0.438460     0.408837 
x,y,z [Debye]:    -1.339258    -1.114478     1.039180 

 

Timings for individual modules:

Sum of individual times         ...      132.193 sec (=   2.203 min)
GTO integral calculation        ...        4.135 sec (=   0.069 min)   3.1 %
SCF iterations                  ...      128.058 sec (=   2.134 min)  96.9 %
                             ****ORCA TERMINATED NORMALLY****
TOTAL RUN TIME: 0 days 0 hours 2 minutes 16 seconds 53 msec
