
                                 *****************
                                 * O   R   C   A *
                                 *****************

                                            #,                                       
                                            ###                                      
                                            ####                                     
                                            #####                                    
                                            ######                                   
                                           ########,                                 
                                     ,,################,,,,,                         
                               ,,#################################,,                 
                          ,,##########################################,,             
                       ,#########################################, ''#####,          
                    ,#############################################,,   '####,        
                  ,##################################################,,,,####,       
                ,###########''''           ''''###############################       
              ,#####''   ,,,,##########,,,,          '''####'''          '####       
            ,##' ,,,,###########################,,,                        '##       
           ' ,,###''''                  '''############,,,                           
         ,,##''                                '''############,,,,        ,,,,,,###''
      ,#''                                            '''#######################'''  
     '                                                          ''''####''''         
             ,#######,   #######,   ,#######,      ##                                
            ,#'     '#,  ##    ##  ,#'     '#,    #''#        ######   ,####,        
            ##       ##  ##   ,#'  ##            #'  '#       #        #'  '#        
            ##       ##  #######   ##           ,######,      #####,   #    #        
            '#,     ,#'  ##    ##  '#,     ,#' ,#      #,         ##   #,  ,#        
             '#######'   ##     ##  '#######'  #'      '#     #####' # '####'        



                  #######################################################
                  #                        -***-                        #
                  #          Department of theory and spectroscopy      #
                  #    Directorship and core code : Frank Neese         #
                  #        Max Planck Institute fuer Kohlenforschung    #
                  #                Kaiser Wilhelm Platz 1               #
                  #                 D-45470 Muelheim/Ruhr               #
                  #                      Germany                        #
                  #                                                     #
                  #                  All rights reserved                #
                  #                        -***-                        #
                  #######################################################


                         Program Version 5.0.3 -  RELEASE  -


 With contributions from (in alphabetic order):
   Daniel Aravena         : Magnetic Suceptibility
   Michael Atanasov       : Ab Initio Ligand Field Theory (pilot matlab implementation)
   Alexander A. Auer      : GIAO ZORA, VPT2 properties, NMR spectrum
   Ute Becker             : Parallelization
   Giovanni Bistoni       : ED, misc. LED, open-shell LED, HFLD
   Martin Brehm           : Molecular dynamics
   Dmytro Bykov           : SCF Hessian
   Vijay G. Chilkuri      : MRCI spin determinant printing, contributions to CSF-ICE
   Dipayan Datta          : RHF DLPNO-CCSD density
   Achintya Kumar Dutta   : EOM-CC, STEOM-CC
   Dmitry Ganyushin       : Spin-Orbit,Spin-Spin,Magnetic field MRCI
   Miquel Garcia          : C-PCM and meta-GGA Hessian, CC/C-PCM, Gaussian charge scheme
   Yang Guo               : DLPNO-NEVPT2, F12-NEVPT2, CIM, IAO-localization
   Andreas Hansen         : Spin unrestricted coupled pair/coupled cluster methods
   Benjamin Helmich-Paris : MC-RPA, TRAH-SCF, COSX integrals
   Lee Huntington         : MR-EOM, pCC
   Robert Izsak           : Overlap fitted RIJCOSX, COSX-SCS-MP3, EOM
   Marcus Kettner         : VPT2
   Christian Kollmar      : KDIIS, OOCD, Brueckner-CCSD(T), CCSD density, CASPT2, CASPT2-K
   Simone Kossmann        : Meta GGA functionals, TD-DFT gradient, OOMP2, MP2 Hessian
   Martin Krupicka        : Initial AUTO-CI
   Lucas Lang             : DCDCAS
   Marvin Lechner         : AUTO-CI (C++ implementation), FIC-MRCC
   Dagmar Lenk            : GEPOL surface, SMD
   Dimitrios Liakos       : Extrapolation schemes; Compound Job, initial MDCI parallelization
   Dimitrios Manganas     : Further ROCIS development; embedding schemes
   Dimitrios Pantazis     : SARC Basis sets
   Anastasios Papadopoulos: AUTO-CI, single reference methods and gradients
   Taras Petrenko         : DFT Hessian,TD-DFT gradient, ASA, ECA, R-Raman, ABS, FL, XAS/XES, NRVS
   Peter Pinski           : DLPNO-MP2, DLPNO-MP2 Gradient
   Christoph Reimann      : Effective Core Potentials
   Marius Retegan         : Local ZFS, SOC
   Christoph Riplinger    : Optimizer, TS searches, QM/MM, DLPNO-CCSD(T), (RO)-DLPNO pert. Triples
   Tobias Risthaus        : Range-separated hybrids, TD-DFT gradient, RPA, STAB
   Michael Roemelt        : Original ROCIS implementation
   Masaaki Saitow         : Open-shell DLPNO-CCSD energy and density
   Barbara Sandhoefer     : DKH picture change effects
   Avijit Sen             : IP-ROCIS
   Kantharuban Sivalingam : CASSCF convergence, NEVPT2, FIC-MRCI
   Bernardo de Souza      : ESD, SOC TD-DFT
   Georgi Stoychev        : AutoAux, RI-MP2 NMR, DLPNO-MP2 response
   Willem Van den Heuvel  : Paramagnetic NMR
   Boris Wezisla          : Elementary symmetry handling
   Frank Wennmohs         : Technical directorship


 We gratefully acknowledge several colleagues who have allowed us to
 interface, adapt or use parts of their codes:
   Stefan Grimme, W. Hujo, H. Kruse, P. Pracht,  : VdW corrections, initial TS optimization,
                  C. Bannwarth, S. Ehlert          DFT functionals, gCP, sTDA/sTD-DF
   Ed Valeev, F. Pavosevic, A. Kumar             : LibInt (2-el integral package), F12 methods
   Garnet Chan, S. Sharma, J. Yang, R. Olivares  : DMRG
   Ulf Ekstrom                                   : XCFun DFT Library
   Mihaly Kallay                                 : mrcc  (arbitrary order and MRCC methods)
   Jiri Pittner, Ondrej Demel                    : Mk-CCSD
   Frank Weinhold                                : gennbo (NPA and NBO analysis)
   Christopher J. Cramer and Donald G. Truhlar   : smd solvation model
   Lars Goerigk                                  : TD-DFT with DH, B97 family of functionals
   V. Asgeirsson, H. Jonsson                     : NEB implementation
   FAccTs GmbH                                   : IRC, NEB, NEB-TS, DLPNO-Multilevel, CI-OPT
                                                   MM, QMMM, 2- and 3-layer-ONIOM, Crystal-QMMM,
                                                   LR-CPCM, SF, NACMEs, symmetry and pop. for TD-DFT,
                                                   nearIR, NL-DFT gradient (VV10), updates on ESD,
                                                   ML-optimized integration grids
   S Lehtola, MJT Oliveira, MAL Marques          : LibXC Library
   Liviu Ungur et al                             : ANISO software


 Your calculation uses the libint2 library for the computation of 2-el integrals
 For citations please refer to: http://libint.valeyev.net

 Your ORCA version has been built with support for libXC version: 5.1.0
 For citations please refer to: https://tddft.org/programs/libxc/

 This ORCA versions uses:
   CBLAS   interface :  Fast vector & matrix operations
   LAPACKE interface :  Fast linear algebra routines
   SCALAPACK package :  Parallel linear algebra routines
   Shared memory     :  Shared parallel matrices
   BLAS/LAPACK       :  OpenBLAS 0.3.15  USE64BITINT DYNAMIC_ARCH NO_AFFINITY Haswell SINGLE_THREADED
        Core in use  :  Haswell
   Copyright (c) 2011-2014, The OpenBLAS Project




***************************************
The coordinates will be read from file: B25.xyz
***************************************


Your calculation utilizes the geometrical counterpoise correction gCP
Please cite in your paper:
H.Kruse, S. Grimme J.Chem.Phys., 136, (2012), 154101 
   

Your calculation utilizes the atom-pairwise dispersion correction
with the Becke-Johnson damping scheme (D3BJ)
Cite in your paper:
S.Grimme, S.Ehrlich, L.Goerigk, J Comput Chem, (2011), 32, 1456–1465 
S.Grimme, J.Antony, S.Ehrlich and H.Krieg, J.Chem.Phys., 132, (2010), 154104 
   

Your calculation employs the composite approach PBEh-3c.
Please cite in your paper:
S. Grimme, J. G. Brandenburg, C. Bannwarth, A. Hansen J.Chem.Phys., 143, (2015), 054107 
   

================================================================================

----- Orbital basis set information -----
Your calculation utilizes the basis: def2-mSVP

----- AuxJ basis set information -----
Your calculation utilizes the auxiliary basis: def2/J
   F. Weigend, Phys. Chem. Chem. Phys. 8, 1057 (2006).

================================================================================
                                        WARNINGS
                       Please study these warnings very carefully!
================================================================================


INFO   : the flag for use of the SHARK integral package has been found!

================================================================================
                                       INPUT FILE
================================================================================
NAME = pbeh-3c.inp
|  1> ! PBEh-3c def2/J TightSCF DefGrid3
|  2> 
|  3> %maxcore 60000
|  4> 
|  5> %pal
|  6> nprocs 4
|  7> end
|  8> 
|  9> *xyzfile 0 1 B25.xyz
| 10> 
| 11>                          ****END OF INPUT****
================================================================================

                       ****************************
                       * Single Point Calculation *
                       ****************************

---------------------------------
CARTESIAN COORDINATES (ANGSTROEM)
---------------------------------
  C     -0.466737    1.887282   -0.023508
  H     -1.102447    1.905735    0.861314
  O      0.283724    3.096660    0.023599
  C      0.411539    0.643534   -0.006295
  H      1.061697    0.652320   -0.887093
  H      1.061833    0.688780    0.869926
  C     -0.411539   -0.643534    0.006295
  H     -1.061833   -0.688780   -0.869926
  H     -1.061697   -0.652320    0.887093
  H      0.820377    3.132962   -0.772687
  H     -1.123307    1.868388   -0.899859
  C      0.466737   -1.887282    0.023508
  H      1.102447   -1.905735   -0.861314
  H      1.123307   -1.868388    0.899859
  O     -0.283724   -3.096660   -0.023599
  H     -0.820377   -3.132962    0.772687

----------------------------
CARTESIAN COORDINATES (A.U.)
----------------------------
  NO LB      ZA    FRAG     MASS         X           Y           Z
   0 C     6.0000    0    12.011   -0.882005    3.566446   -0.044424
   1 H     1.0000    0     1.008   -2.083323    3.601317    1.627648
   2 O     8.0000    0    15.999    0.536161    5.851839    0.044596
   3 C     6.0000    0    12.011    0.777696    1.216103   -0.011896
   4 H     1.0000    0     1.008    2.006317    1.232706   -1.676363
   5 H     1.0000    0     1.008    2.006574    1.301606    1.643922
   6 C     6.0000    0    12.011   -0.777696   -1.216103    0.011896
   7 H     1.0000    0     1.008   -2.006574   -1.301606   -1.643922
   8 H     1.0000    0     1.008   -2.006317   -1.232706    1.676363
   9 H     1.0000    0     1.008    1.550288    5.920440   -1.460167
  10 H     1.0000    0     1.008   -2.122743    3.530742   -1.700487
  11 C     6.0000    0    12.011    0.882005   -3.566446    0.044424
  12 H     1.0000    0     1.008    2.083323   -3.601317   -1.627648
  13 H     1.0000    0     1.008    2.122743   -3.530742    1.700487
  14 O     8.0000    0    15.999   -0.536161   -5.851839   -0.044596
  15 H     1.0000    0     1.008   -1.550288   -5.920440    1.460167

--------------------------------
INTERNAL COORDINATES (ANGSTROEM)
--------------------------------
 C      0   0   0     0.000000000000     0.00000000     0.00000000
 H      1   0   0     1.089668614301     0.00000000     0.00000000
 O      1   2   0     1.424080731157   105.43807032     0.00000000
 C      1   2   3     1.522686476938   109.94714200   121.99931038
 H      4   1   2     1.094800317667   109.07980989   181.43764139
 H      4   1   2     1.092104723821   108.58318343   297.65337681
 C      4   1   2     1.527795777847   112.17669672    59.98020507
 H      7   4   1     1.092104723821   110.43109914    58.72910729
 H      7   4   1     1.094800317667   109.47065402   301.23303260
 H      3   1   2     0.960929587123   107.39603220   183.11854160
 H      1   2   3     1.095185930944   107.47563494   241.62242942
 C      7   4   1     1.522686476938   112.17669672   180.00000000
 H     12   7   4     1.089668614301   109.94714200   300.01979493
 H     12   7   4     1.095185930944   109.92227414    58.14096045
 O     12   7   4     1.424080731157   112.91294481   182.57807105
 H     15  12   7     0.960929587123   107.39603220   296.94559403

---------------------------
INTERNAL COORDINATES (A.U.)
---------------------------
 C      0   0   0     0.000000000000     0.00000000     0.00000000
 H      1   0   0     2.059175257759     0.00000000     0.00000000
 O      1   2   0     2.691122574482   105.43807032     0.00000000
 C      1   2   3     2.877460429238   109.94714200   121.99931038
 H      4   1   2     2.068872771721   109.07980989   181.43764139
 H      4   1   2     2.063778837584   108.58318343   297.65337681
 C      4   1   2     2.887115608693   112.17669672    59.98020507
 H      7   4   1     2.063778837584   110.43109914    58.72910729
 H      7   4   1     2.068872771721   109.47065402   301.23303260
 H      3   1   2     1.815893753645   107.39603220   183.11854160
 H      1   2   3     2.069601475207   107.47563494   241.62242942
 C      7   4   1     2.877460429238   112.17669672   180.00000000
 H     12   7   4     2.059175257759   109.94714200   300.01979493
 H     12   7   4     2.069601475207   109.92227414    58.14096045
 O     12   7   4     2.691122574482   112.91294481   182.57807105
 H     15  12   7     1.815893753645   107.39603220   296.94559403

---------------------
BASIS SET INFORMATION
---------------------
There are 3 groups of distinct atoms

 Group   1 Type C   : 8s4p1d contracted to 4s2p1d pattern {5111/31/1}
 Group   2 Type H   : 4s contracted to 2s pattern {31}
 Group   3 Type O   : 8s4p1d contracted to 4s2p1d pattern {5111/31/1}

Atom   0C    basis set group =>   1
Atom   1H    basis set group =>   2
Atom   2O    basis set group =>   3
Atom   3C    basis set group =>   1
Atom   4H    basis set group =>   2
Atom   5H    basis set group =>   2
Atom   6C    basis set group =>   1
Atom   7H    basis set group =>   2
Atom   8H    basis set group =>   2
Atom   9H    basis set group =>   2
Atom  10H    basis set group =>   2
Atom  11C    basis set group =>   1
Atom  12H    basis set group =>   2
Atom  13H    basis set group =>   2
Atom  14O    basis set group =>   3
Atom  15H    basis set group =>   2
---------------------------------
AUXILIARY/J BASIS SET INFORMATION
---------------------------------
There are 3 groups of distinct atoms

 Group   1 Type C   : 12s5p4d2f1g contracted to 6s4p3d1f1g pattern {711111/2111/211/2/1}
 Group   2 Type H   : 5s2p1d contracted to 3s1p1d pattern {311/2/1}
 Group   3 Type O   : 12s5p4d2f1g contracted to 6s4p3d1f1g pattern {711111/2111/211/2/1}

Atom   0C    basis set group =>   1
Atom   1H    basis set group =>   2
Atom   2O    basis set group =>   3
Atom   3C    basis set group =>   1
Atom   4H    basis set group =>   2
Atom   5H    basis set group =>   2
Atom   6C    basis set group =>   1
Atom   7H    basis set group =>   2
Atom   8H    basis set group =>   2
Atom   9H    basis set group =>   2
Atom  10H    basis set group =>   2
Atom  11C    basis set group =>   1
Atom  12H    basis set group =>   2
Atom  13H    basis set group =>   2
Atom  14O    basis set group =>   3
Atom  15H    basis set group =>   2


           ************************************************************
           *        Program running with 4 parallel MPI-processes     *
           *              working on a common directory               *
           ************************************************************
------------------------------------------------------------------------------
                           ORCA GTO INTEGRAL CALCULATION
                           -- RI-GTO INTEGRALS CHOSEN --
------------------------------------------------------------------------------
------------------------------------------------------------------------------
                   ___                                                        
                  /   \      - P O W E R E D   B Y -                         
                 /     \                                                     
                 |  |  |   _    _      __       _____    __    __             
                 |  |  |  | |  | |    /  \     |  _  \  |  |  /  |          
                  \  \/   | |  | |   /    \    | | | |  |  | /  /          
                 / \  \   | |__| |  /  /\  \   | |_| |  |  |/  /          
                |  |  |   |  __  | /  /__\  \  |    /   |      \           
                |  |  |   | |  | | |   __   |  |    \   |  |\   \          
                \     /   | |  | | |  |  |  |  | |\  \  |  | \   \       
                 \___/    |_|  |_| |__|  |__|  |_| \__\ |__|  \__/        
                                                                              
                      - O R C A' S   B I G   F R I E N D -                    
                                      &                                       
                       - I N T E G R A L  F E E D E R -                       
                                                                              
 v1 FN, 2020, v2 2021                                                         
------------------------------------------------------------------------------


Reading SHARK input file pbeh-3c.SHARKINP.tmp ... ok
----------------------
SHARK INTEGRAL PACKAGE
----------------------

Number of atoms                             ...     16
Number of basis functions                   ...    110
Number of shells                            ...     62
Maximum angular momentum                    ...      2
Integral batch strategy                     ... SHARK/LIBINT Hybrid
RI-J (if used) integral strategy            ... SPLIT-RIJ (Revised 2003 algorithm where possible)
Printlevel                                  ...      1
Contraction scheme used                     ... SEGMENTED contraction
Coulomb Range Separation                    ... NOT USED
Exchange Range Separation                   ... NOT USED
Finite Nucleus Model                        ... NOT USED
Auxiliary Coulomb fitting basis             ... AVAILABLE
   # of basis functions in Aux-J            ...    404
   # of shells in Aux-J                     ...    140
   Maximum angular momentum in Aux-J        ...      4
Auxiliary J/K fitting basis                 ... NOT available
Auxiliary Correlation fitting basis         ... NOT available
Auxiliary 'external' fitting basis          ... NOT available
Integral threshold                          ...     2.500000e-11
Primitive cut-off                           ...     2.500000e-12
Primitive pair pre-selection threshold      ...     2.500000e-12

Calculating pre-screening integrals         ... done (  0.0 sec) Dimension = 62
Organizing shell pair data                  ... done (  0.3 sec)
Shell pair information
Total number of shell pairs                 ...      1953
Shell pairs after pre-screening             ...      1726
Total number of primitive shell pairs       ...      7129
Primitive shell pairs kept                  ...      4595
          la=0 lb=0:    853 shell pairs
          la=1 lb=0:    488 shell pairs
          la=1 lb=1:     73 shell pairs
          la=2 lb=0:    226 shell pairs
          la=2 lb=1:     68 shell pairs
          la=2 lb=2:     18 shell pairs

Calculating one electron integrals          ... done (  0.0 sec)
Calculating RI/J V-Matrix + Cholesky decomp.... done (  0.7 sec)
Calculating Nuclear repulsion               ... done (  0.0 sec) ENN=    244.624904104838 Eh

SHARK setup successfully completed in   2.1 seconds

Maximum memory used throughout the entire GTOINT-calculation: 10.4 MB


           ************************************************************
           *        Program running with 4 parallel MPI-processes     *
           *              working on a common directory               *
           ************************************************************
-------------------------------------------------------------------------------
                                 ORCA SCF
-------------------------------------------------------------------------------

------------
SCF SETTINGS
------------
Hamiltonian:
 Density Functional     Method          .... DFT(GTOs)
 Exchange Functional    Exchange        .... PBE
   PBE kappa parameter   XKappa         ....  1.024500
   PBE mue parameter    XMuePBE         ....  0.123457
 Correlation Functional Correlation     .... PBE
   PBE beta parameter  CBetaPBE         ....  0.030000
 LDA part of GGA corr.  LDAOpt          .... PW91-LDA
 Gradients option       PostSCFGGA      .... off
 Hybrid DFT is turned on
   Fraction HF Exchange ScalHFX         ....  0.420000
   Scaling of DF-GGA-X  ScalDFX         ....  0.580000
   Scaling of DF-GGA-C  ScalDFC         ....  1.000000
   Scaling of DF-LDA-C  ScalLDAC        ....  1.000000
   Perturbative correction              ....  0.000000
   Density functional embedding theory  .... OFF
 RI-approximation to the Coulomb term is turned on
   Number of AuxJ basis functions       .... 404
   RIJ-ON(X) (HFX calculated with O(N)) .... on
   Number of AuxJ basis functions       .... 404
   RIJ-COSX (HFX calculated with COS-X)).... on


General Settings:
 Integral files         IntName         .... pbeh-3c
 Hartree-Fock type      HFTyp           .... RHF
 Total Charge           Charge          ....    0
 Multiplicity           Mult            ....    1
 Number of Electrons    NEL             ....   50
 Basis Dimension        Dim             ....  110
 Nuclear Repulsion      ENuc            ....    244.6249041048 Eh

Convergence Acceleration:
 DIIS                   CNVDIIS         .... on
   Start iteration      DIISMaxIt       ....    12
   Startup error        DIISStart       ....  0.200000
   # of expansion vecs  DIISMaxEq       ....     5
   Bias factor          DIISBfac        ....   1.050
   Max. coefficient     DIISMaxC        ....  10.000
 Trust-Rad. Augm. Hess. CNVTRAH         .... auto
   Auto Start mean grad. ratio tolernc. ....  1.125000
   Auto Start start iteration           ....    20
   Auto Start num. interpolation iter.  ....    10
   Max. Number of Micro iterations      ....    16
   Max. Number of Macro iterations      .... Maxiter - #DIIS iter
   Number of Davidson start vectors     ....     2
   Converg. threshold I  (grad. norm)   ....   1.000e-05
   Converg. threshold II (energy diff.) ....   1.000e-08
   Grad. Scal. Fac. for Micro threshold ....   0.100
   Minimum threshold for Micro iter.    ....   0.010
   NR start threshold (gradient norm)   ....   0.001
   Initial trust radius                 ....   0.400
   Minimum AH scaling param. (alpha)    ....   1.000
   Maximum AH scaling param. (alpha)    .... 1000.000
   Orbital update algorithm             .... Taylor
   White noise on init. David. guess    .... on
   Maximum white noise                  ....   0.010
   Quad. conv. algorithm                .... NR
   COSX micro iterations for RIJONX calc.... off
 SOSCF                  CNVSOSCF        .... on
   Start iteration      SOSCFMaxIt      ....   150
   Startup grad/error   SOSCFStart      ....  0.003300
 Level Shifting         CNVShift        .... on
   Level shift para.    LevelShift      ....    0.2500
   Turn off err/grad.   ShiftErr        ....    0.0010
 Zerner damping         CNVZerner       .... off
 Static damping         CNVDamp         .... on
   Fraction old density DampFac         ....    0.7000
   Max. Damping (<1)    DampMax         ....    0.9800
   Min. Damping (>=0)   DampMin         ....    0.0000
   Turn off err/grad.   DampErr         ....    0.1000
 Fernandez-Rico         CNVRico         .... off

SCF Procedure:
 Maximum # iterations   MaxIter         ....   125
 SCF integral mode      SCFMode         .... Direct
   Integral package                     .... SHARK and LIBINT hybrid scheme
 Reset frequency        DirectResetFreq ....    20
 Integral Threshold     Thresh          ....  2.500e-11 Eh
 Primitive CutOff       TCut            ....  2.500e-12 Eh

Convergence Tolerance:
 Convergence Check Mode ConvCheckMode   .... Total+1el-Energy
 Convergence forced     ConvForced      .... 0
 Energy Change          TolE            ....  1.000e-08 Eh
 1-El. energy change                    ....  1.000e-05 Eh
 Orbital Gradient       TolG            ....  1.000e-05
 Orbital Rotation angle TolX            ....  1.000e-05
 DIIS Error             TolErr          ....  5.000e-07


Diagonalization of the overlap matrix:
Smallest eigenvalue                        ... 4.727e-03
Time for diagonalization                   ...    0.002 sec
Threshold for overlap eigenvalues          ... 1.000e-08
Number of eigenvalues below threshold      ... 0
Time for construction of square roots      ...    0.181 sec
Total time needed                          ...    0.183 sec

--------------------------------
INITIAL GUESS: MINIMAL BASIS EHT
--------------------------------
The minimal basis has 40 functions
EHT matrix was diagonalized
Basis set overlap was calculated now projecting the orbitals
Using GuessMode=FMatrix for the initial guess
C*T matrix was formed
Effective Fockian was calculated
Effective Fockian was diagonalized
Initial density was built
                      ------------------
                      INITIAL GUESS DONE
                      ------------------
-------------------
DFT GRID GENERATION
-------------------

General Integration Accuracy     IntAcc      ... 4.959
Radial Grid Type                 RadialGrid  ... OptM3 with GC (2021)
Angular Grid (max. ang.)         AngularGrid ... 6 (Lebedev-590)
Angular grid pruning method      GridPruning ... 4 (adaptive)
Weight generation scheme         WeightScheme... Becke
Basis function cutoff            BFCut       ... 1.0000e-11
Integration weight cutoff        WCut        ... 1.0000e-14
Angular grids for H and He will be reduced by one unit
Partially contracted basis set               ... off
Rotationally invariant grid construction     ... off

Total number of grid points                  ...   173136
Total number of batches                      ...     2714
Average number of points per batch           ...       63
Average number of grid points per atom       ...    10821
Time for grid setup =    3.117 sec

--------------------
COSX GRID GENERATION
--------------------

GRIDX 1
-------
General Integration Accuracy     IntAcc      ... 4.020
Radial Grid Type                 RadialGrid  ... OptM3 with GC (2021)
Angular Grid (max. ang.)         AngularGrid ... 2 (Lebedev-110)
Angular grid pruning method      GridPruning ... 4 (adaptive)
Weight generation scheme         WeightScheme... Becke
Basis function cutoff            BFCut       ... 1.0000e-11
Integration weight cutoff        WCut        ... 1.0000e-14
Angular grids for H and He will be reduced by one unit
Partially contracted basis set               ... on
Rotationally invariant grid construction     ... off

Total number of grid points                  ...    18524
Total number of batches                      ...      298
Average number of points per batch           ...       62
Average number of grid points per atom       ...     1158
UseSFitting                                  ... on

GRIDX 2
-------
General Integration Accuracy     IntAcc      ... 4.338
Radial Grid Type                 RadialGrid  ... OptM3 with GC (2021)
Angular Grid (max. ang.)         AngularGrid ... 3 (Lebedev-194)
Angular grid pruning method      GridPruning ... 4 (adaptive)
Weight generation scheme         WeightScheme... Becke
Basis function cutoff            BFCut       ... 1.0000e-11
Integration weight cutoff        WCut        ... 1.0000e-14
Angular grids for H and He will be reduced by one unit
Partially contracted basis set               ... on
Rotationally invariant grid construction     ... off

Total number of grid points                  ...    40580
Total number of batches                      ...      642
Average number of points per batch           ...       63
Average number of grid points per atom       ...     2536
UseSFitting                                  ... on

GRIDX 3
-------
General Integration Accuracy     IntAcc      ... 4.871
Radial Grid Type                 RadialGrid  ... OptM3 with GC (2021)
Angular Grid (max. ang.)         AngularGrid ... 4 (Lebedev-302)
Angular grid pruning method      GridPruning ... 4 (adaptive)
Weight generation scheme         WeightScheme... Becke
Basis function cutoff            BFCut       ... 1.0000e-11
Integration weight cutoff        WCut        ... 1.0000e-14
Angular grids for H and He will be reduced by one unit
Partially contracted basis set               ... on
Rotationally invariant grid construction     ... off

Total number of grid points                  ...    79856
Total number of batches                      ...     1258
Average number of points per batch           ...       63
Average number of grid points per atom       ...     4991
UseSFitting                                  ... on

Time for X-Grid setup             =    3.133 sec

--------------
SCF ITERATIONS
--------------
ITER       Energy         Delta-E        Max-DP      RMS-DP      [F,P]     Damp
               ***  Starting incremental Fock matrix formation  ***
  0   -307.3886888348   0.000000000000 0.14151658  0.00648602  0.4338839 0.7000
  1   -307.6914892980  -0.302800463177 0.07751123  0.00375393  0.2805616 0.7000
                               ***Turning on DIIS***
  2   -307.8557360328  -0.164246734815 0.03479052  0.00204309  0.1977718 0.7000
  3   -307.9676704144  -0.111934381524 0.02385485  0.00124281  0.1390391 0.7000
  4   -308.0470970705  -0.079426656180 0.05009053  0.00305514  0.0973305 0.0000
  5   -308.2375605290  -0.190463458452 0.00758917  0.00031503  0.0081133 0.0000
  6   -308.2377596544  -0.000199125451 0.00223424  0.00008824  0.0048316 0.0000
                      *** Initiating the SOSCF procedure ***
                           *** Shutting down DIIS ***
                      *** Re-Reading the Fockian *** 
                      *** Removing any level shift *** 
ITER      Energy       Delta-E        Grad      Rot      Max-DP    RMS-DP
  7   -308.23783067  -0.0000710125  0.000440  0.000440  0.001529  0.000061
               *** Restarting incremental Fock matrix formation ***
  8   -308.23785353  -0.0000228587  0.000059  0.000115  0.000213  0.000010
  9   -308.23785367  -0.0000001440  0.000045  0.000033  0.000089  0.000004
 10   -308.23785375  -0.0000000790  0.000004  0.000004  0.000010  0.000001
 11   -308.23785375   0.0000000008  0.000003  0.000001  0.000004  0.000000
                  ***Gradient check signals convergence***
              ***Rediagonalizing the Fockian in SOSCF/NRSCF***

               *****************************************************
               *                     SUCCESS                       *
               *           SCF CONVERGED AFTER  12 CYCLES          *
               *****************************************************

Old exchange energy                            =    -17.133643217 Eh
New exchange energy                            =    -17.133634865 Eh
Exchange energy change after final integration =      0.000008353 Eh
Total energy after final integration           =   -308.237845397 Eh
Final COS-X integration done in                =     2.362 sec

----------------
TOTAL SCF ENERGY
----------------

Total Energy       :         -308.23784540 Eh           -8387.57819 eV

Components:
Nuclear Repulsion  :          244.62490410 Eh            6656.58205 eV
Electronic Energy  :         -552.86274950 Eh          -15044.16024 eV
One Electron Energy:         -904.21346075 Eh          -24604.89916 eV
Two Electron Energy:          351.35071124 Eh            9560.73891 eV
Max COSX asymmetry :            0.00000052 Eh               0.00001 eV

Virial components:
Potential Energy   :         -614.27741667 Eh          -16715.33830 eV
Kinetic Energy     :          306.03957128 Eh            8327.76011 eV
Virial Ratio       :            2.00718297


DFT components:
N(Alpha)           :       25.000000042560 electrons
N(Beta)            :       25.000000042560 electrons
N(Total)           :       50.000000085119 electrons
E(X)               :      -22.764131108744 Eh       
E(C)               :       -2.176544774494 Eh       
E(XC)              :      -24.940675883238 Eh       
DFET-embed. en.    :        0.000000000000 Eh       

---------------
SCF CONVERGENCE
---------------

  Last Energy change         ...   -1.7902e-09  Tolerance :   1.0000e-08
  Last MAX-Density change    ...    1.7764e-15  Tolerance :   1.0000e-07
  Last RMS-Density change    ...    5.6615e-17  Tolerance :   5.0000e-09
  Last Orbital Gradient      ...    4.4418e-07  Tolerance :   1.0000e-05
  Last Orbital Rotation      ...    4.4480e-07  Tolerance :   1.0000e-05

             **** THE GBW FILE WAS UPDATED (pbeh-3c.gbw) ****
             **** DENSITY pbeh-3c.scfp WAS UPDATED ****
             **** ENERGY FILE WAS UPDATED (pbeh-3c.en.tmp) ****
             **** THE GBW FILE WAS UPDATED (pbeh-3c.gbw) ****
             **** DENSITY pbeh-3c.scfp WAS UPDATED ****
----------------
ORBITAL ENERGIES
----------------

  NO   OCC          E(Eh)            E(eV) 
   0   2.0000     -19.486197      -530.2464 
   1   2.0000     -19.486191      -530.2462 
   2   2.0000     -10.483127      -285.2604 
   3   2.0000     -10.483088      -285.2593 
   4   2.0000     -10.440472      -284.0997 
   5   2.0000     -10.440256      -284.0938 
   6   2.0000      -1.123280       -30.5660 
   7   2.0000      -1.122802       -30.5530 
   8   2.0000      -0.890882       -24.2421 
   9   2.0000      -0.797167       -21.6920 
  10   2.0000      -0.708963       -19.2919 
  11   2.0000      -0.671972       -18.2853 
  12   2.0000      -0.582886       -15.8611 
  13   2.0000      -0.560217       -15.2443 
  14   2.0000      -0.538632       -14.6569 
  15   2.0000      -0.507453       -13.8085 
  16   2.0000      -0.475102       -12.9282 
  17   2.0000      -0.472002       -12.8438 
  18   2.0000      -0.457189       -12.4408 
  19   2.0000      -0.408474       -11.1151 
  20   2.0000      -0.400557       -10.8997 
  21   2.0000      -0.388130       -10.5616 
  22   2.0000      -0.374198       -10.1825 
  23   2.0000      -0.334320        -9.0973 
  24   2.0000      -0.318251        -8.6601 
  25   0.0000       0.122032         3.3206 
  26   0.0000       0.124042         3.3754 
  27   0.0000       0.142945         3.8897 
  28   0.0000       0.172633         4.6976 
  29   0.0000       0.184090         5.0093 
  30   0.0000       0.197369         5.3707 
  31   0.0000       0.202078         5.4988 
  32   0.0000       0.232175         6.3178 
  33   0.0000       0.240741         6.5509 
  34   0.0000       0.245829         6.6894 
  35   0.0000       0.246687         6.7127 
  36   0.0000       0.261583         7.1180 
  37   0.0000       0.264706         7.2030 
  38   0.0000       0.314703         8.5635 
  39   0.0000       0.343669         9.3517 
  40   0.0000       0.475475        12.9383 
  41   0.0000       0.523804        14.2534 
  42   0.0000       0.549385        14.9495 
  43   0.0000       0.560392        15.2490 
  44   0.0000       0.573815        15.6143 
  45   0.0000       0.601645        16.3716 
  46   0.0000       0.644963        17.5503 
  47   0.0000       0.648371        17.6431 
  48   0.0000       0.693381        18.8679 
  49   0.0000       0.694246        18.8914 
  50   0.0000       0.713210        19.4074 
  51   0.0000       0.809000        22.0140 
  52   0.0000       0.899814        24.4852 
  53   0.0000       0.909286        24.7429 
  54   0.0000       0.956436        26.0259 
  55   0.0000       0.961986        26.1770 
  56   0.0000       1.008103        27.4319 
  57   0.0000       1.014222        27.5984 
  58   0.0000       1.030500        28.0413 
  59   0.0000       1.038503        28.2591 
  60   0.0000       1.043421        28.3929 
  61   0.0000       1.056043        28.7364 
  62   0.0000       1.063263        28.9329 
  63   0.0000       1.125141        30.6166 
  64   0.0000       1.158138        31.5145 
  65   0.0000       1.164197        31.6794 
  66   0.0000       1.212671        32.9984 
  67   0.0000       1.239322        33.7237 
  68   0.0000       1.328381        36.1471 
  69   0.0000       1.335223        36.3333 
  70   0.0000       1.445054        39.3219 
  71   0.0000       1.449490        39.4426 
  72   0.0000       1.500170        40.8217 
  73   0.0000       1.557795        42.3898 
  74   0.0000       1.603960        43.6460 
  75   0.0000       1.711828        46.5812 
  76   0.0000       1.727367        47.0040 
  77   0.0000       1.810662        49.2706 
  78   0.0000       1.837777        50.0084 
  79   0.0000       1.888443        51.3871 
  80   0.0000       1.926106        52.4120 
  81   0.0000       1.942989        52.8714 
  82   0.0000       1.961104        53.3643 
  83   0.0000       1.976796        53.7914 
  84   0.0000       1.993275        54.2398 
  85   0.0000       2.023013        55.0490 
  86   0.0000       2.074020        56.4370 
  87   0.0000       2.180032        59.3217 
  88   0.0000       2.193590        59.6906 
  89   0.0000       2.204069        59.9758 
  90   0.0000       2.298514        62.5457 
  91   0.0000       2.311258        62.8925 
  92   0.0000       2.322521        63.1990 
  93   0.0000       2.437130        66.3177 
  94   0.0000       2.464339        67.0581 
  95   0.0000       2.537522        69.0495 
  96   0.0000       2.576246        70.1032 
  97   0.0000       2.582279        70.2674 
  98   0.0000       2.625312        71.4384 
  99   0.0000       2.648021        72.0563 
 100   0.0000       2.706058        73.6356 
 101   0.0000       2.864212        77.9392 
 102   0.0000       2.914249        79.3007 
 103   0.0000       2.949324        80.2552 
 104   0.0000      13.567559       369.1920 
 105   0.0000      13.839622       376.5953 
 106   0.0000      13.960757       379.8915 
 107   0.0000      14.057701       382.5295 
 108   0.0000      25.536648       694.8875 
 109   0.0000      25.553658       695.3504 

                    ********************************
                    * MULLIKEN POPULATION ANALYSIS *
                    ********************************

-----------------------
MULLIKEN ATOMIC CHARGES
-----------------------
   0 C :   -0.129787
   1 H :    0.207473
   2 O :   -0.621373
   3 C :   -0.466210
   4 H :    0.198274
   5 H :    0.224974
   6 C :   -0.466210
   7 H :    0.224974
   8 H :    0.198274
   9 H :    0.408508
  10 H :    0.178142
  11 C :   -0.129787
  12 H :    0.207473
  13 H :    0.178142
  14 O :   -0.621373
  15 H :    0.408508
Sum of atomic charges:   -0.0000000

--------------------------------
MULLIKEN REDUCED ORBITAL CHARGES
--------------------------------
  0 C s       :     3.247878  s :     3.247878
      pz      :     1.129684  p :     2.813146
      px      :     0.932820
      py      :     0.750642
      dz2     :     0.010121  d :     0.068762
      dxz     :     0.018054
      dyz     :     0.006668
      dx2y2   :     0.015920
      dxy     :     0.017999
  1 H s       :     0.792527  s :     0.792527
  2 O s       :     3.814679  s :     3.814679
      pz      :     1.592961  p :     4.777189
      px      :     1.612339
      py      :     1.571889
      dz2     :     0.007200  d :     0.029506
      dxz     :     0.008814
      dyz     :     0.003611
      dx2y2   :     0.005148
      dxy     :     0.004732
  3 C s       :     3.331566  s :     3.331566
      pz      :     1.130263  p :     3.091962
      px      :     1.036394
      py      :     0.925304
      dz2     :     0.007168  d :     0.042683
      dxz     :     0.015289
      dyz     :     0.003406
      dx2y2   :     0.006962
      dxy     :     0.009858
  4 H s       :     0.801726  s :     0.801726
  5 H s       :     0.775026  s :     0.775026
  6 C s       :     3.331566  s :     3.331566
      pz      :     1.130263  p :     3.091961
      px      :     1.036395
      py      :     0.925304
      dz2     :     0.007168  d :     0.042683
      dxz     :     0.015289
      dyz     :     0.003406
      dx2y2   :     0.006962
      dxy     :     0.009858
  7 H s       :     0.775026  s :     0.775026
  8 H s       :     0.801726  s :     0.801726
  9 H s       :     0.591492  s :     0.591492
 10 H s       :     0.821858  s :     0.821858
 11 C s       :     3.247879  s :     3.247879
      pz      :     1.129684  p :     2.813146
      px      :     0.932820
      py      :     0.750642
      dz2     :     0.010121  d :     0.068762
      dxz     :     0.018054
      dyz     :     0.006668
      dx2y2   :     0.015920
      dxy     :     0.017999
 12 H s       :     0.792527  s :     0.792527
 13 H s       :     0.821858  s :     0.821858
 14 O s       :     3.814679  s :     3.814679
      pz      :     1.592961  p :     4.777189
      px      :     1.612339
      py      :     1.571889
      dz2     :     0.007200  d :     0.029506
      dxz     :     0.008814
      dyz     :     0.003611
      dx2y2   :     0.005148
      dxy     :     0.004732
 15 H s       :     0.591492  s :     0.591492


                     *******************************
                     * LOEWDIN POPULATION ANALYSIS *
                     *******************************

----------------------
LOEWDIN ATOMIC CHARGES
----------------------
   0 C :   -0.094560
   1 H :    0.119012
   2 O :   -0.409615
   3 C :   -0.265909
   4 H :    0.117743
   5 H :    0.129557
   6 C :   -0.265909
   7 H :    0.129557
   8 H :    0.117743
   9 H :    0.305958
  10 H :    0.097813
  11 C :   -0.094560
  12 H :    0.119012
  13 H :    0.097813
  14 O :   -0.409615
  15 H :    0.305958

-------------------------------
LOEWDIN REDUCED ORBITAL CHARGES
-------------------------------
  0 C s       :     2.907953  s :     2.907953
      pz      :     1.121815  p :     3.041696
      px      :     1.019823
      py      :     0.900059
      dz2     :     0.020526  d :     0.144911
      dxz     :     0.033626
      dyz     :     0.013824
      dx2y2   :     0.034742
      dxy     :     0.042194
  1 H s       :     0.880988  s :     0.880988
  2 O s       :     3.528646  s :     3.528646
      pz      :     1.606039  p :     4.829849
      px      :     1.630486
      py      :     1.593324
      dz2     :     0.010752  d :     0.051120
      dxz     :     0.013770
      dyz     :     0.006540
      dx2y2   :     0.010334
      dxy     :     0.009724
  3 C s       :     2.919772  s :     2.919772
      pz      :     1.113639  p :     3.258639
      px      :     1.096837
      py      :     1.048163
      dz2     :     0.014053  d :     0.087498
      dxz     :     0.027162
      dyz     :     0.007205
      dx2y2   :     0.015537
      dxy     :     0.023541
  4 H s       :     0.882257  s :     0.882257
  5 H s       :     0.870443  s :     0.870443
  6 C s       :     2.919772  s :     2.919772
      pz      :     1.113639  p :     3.258639
      px      :     1.096837
      py      :     1.048163
      dz2     :     0.014053  d :     0.087498
      dxz     :     0.027162
      dyz     :     0.007205
      dx2y2   :     0.015537
      dxy     :     0.023541
  7 H s       :     0.870443  s :     0.870443
  8 H s       :     0.882257  s :     0.882257
  9 H s       :     0.694042  s :     0.694042
 10 H s       :     0.902187  s :     0.902187
 11 C s       :     2.907953  s :     2.907953
      pz      :     1.121815  p :     3.041696
      px      :     1.019823
      py      :     0.900059
      dz2     :     0.020526  d :     0.144911
      dxz     :     0.033626
      dyz     :     0.013824
      dx2y2   :     0.034742
      dxy     :     0.042194
 12 H s       :     0.880988  s :     0.880988
 13 H s       :     0.902187  s :     0.902187
 14 O s       :     3.528646  s :     3.528646
      pz      :     1.606039  p :     4.829849
      px      :     1.630486
      py      :     1.593324
      dz2     :     0.010752  d :     0.051120
      dxz     :     0.013770
      dyz     :     0.006540
      dx2y2   :     0.010334
      dxy     :     0.009724
 15 H s       :     0.694042  s :     0.694042


                      *****************************
                      * MAYER POPULATION ANALYSIS *
                      *****************************

  NA   - Mulliken gross atomic population
  ZA   - Total nuclear charge
  QA   - Mulliken gross atomic charge
  VA   - Mayer's total valence
  BVA  - Mayer's bonded valence
  FA   - Mayer's free valence

  ATOM       NA         ZA         QA         VA         BVA        FA
  0 C      6.1298     6.0000    -0.1298     3.7929     3.7929    -0.0000
  1 H      0.7925     1.0000     0.2075     0.9086     0.9086    -0.0000
  2 O      8.6214     8.0000    -0.6214     1.8657     1.8657    -0.0000
  3 C      6.4662     6.0000    -0.4662     3.7314     3.7314    -0.0000
  4 H      0.8017     1.0000     0.1983     0.9139     0.9139     0.0000
  5 H      0.7750     1.0000     0.2250     0.9056     0.9056     0.0000
  6 C      6.4662     6.0000    -0.4662     3.7314     3.7314    -0.0000
  7 H      0.7750     1.0000     0.2250     0.9056     0.9056     0.0000
  8 H      0.8017     1.0000     0.1983     0.9139     0.9139    -0.0000
  9 H      0.5915     1.0000     0.4085     0.8071     0.8071    -0.0000
 10 H      0.8219     1.0000     0.1781     0.9072     0.9072     0.0000
 11 C      6.1298     6.0000    -0.1298     3.7929     3.7929    -0.0000
 12 H      0.7925     1.0000     0.2075     0.9086     0.9086     0.0000
 13 H      0.8219     1.0000     0.1781     0.9072     0.9072     0.0000
 14 O      8.6214     8.0000    -0.6214     1.8657     1.8657    -0.0000
 15 H      0.5915     1.0000     0.4085     0.8071     0.8071    -0.0000

  Mayer bond orders larger than 0.100000
B(  0-C ,  1-H ) :   0.9133 B(  0-C ,  2-O ) :   1.0256 B(  0-C ,  3-C ) :   0.9831 
B(  0-C , 10-H ) :   0.9094 B(  2-O ,  9-H ) :   0.7952 B(  3-C ,  4-H ) :   0.9186 
B(  3-C ,  5-H ) :   0.9092 B(  3-C ,  6-C ) :   0.9571 B(  6-C ,  7-H ) :   0.9092 
B(  6-C ,  8-H ) :   0.9186 B(  6-C , 11-C ) :   0.9831 B( 11-C , 12-H ) :   0.9133 
B( 11-C , 13-H ) :   0.9094 B( 11-C , 14-O ) :   1.0256 B( 14-O , 15-H ) :   0.7952 


-------
TIMINGS
-------

Total SCF time: 0 days 0 hours 1 min 19 sec 

Total time                  ....      79.044 sec
Sum of individual times     ....      71.296 sec  ( 90.2%)

Fock matrix formation       ....      57.924 sec  ( 73.3%)
  Split-RI-J                ....       6.602 sec  ( 11.4% of F)
  Chain of spheres X        ....      18.388 sec  ( 31.7% of F)
  XC integration            ....      17.628 sec  ( 30.4% of F)
    Basis function eval.    ....       2.858 sec  ( 16.2% of XC)
    Density eval.           ....       1.802 sec  ( 10.2% of XC)
    XC-Functional eval.     ....       1.381 sec  (  7.8% of XC)
    XC-Potential eval.      ....       0.775 sec  (  4.4% of XC)
Diagonalization             ....       1.381 sec  (  1.7%)
Density matrix formation    ....       0.149 sec  (  0.2%)
Population analysis         ....       0.966 sec  (  1.2%)
Initial guess               ....       0.009 sec  (  0.0%)
Orbital Transformation      ....       0.000 sec  (  0.0%)
Orbital Orthonormalization  ....       0.000 sec  (  0.0%)
DIIS solution               ....       3.730 sec  (  4.7%)
SOSCF solution              ....       0.888 sec  (  1.1%)
Grid generation             ....       6.250 sec  (  7.9%)

Maximum memory used throughout the entire SCF-calculation: 52.7 MB


-------------------------------------------------------------------------------
                          DFT DISPERSION CORRECTION                            
                                                                               
                              DFTD3 V3.1  Rev 1                                
                          USING Becke-Johnson damping                          
-------------------------------------------------------------------------------
The PBEh-3c composite method is recognized
Using three-body term ABC
Active option DFTDOPT                   ...         4   

molecular C6(AA) [au] = 1675.009950 


            DFT-D V3
 parameters
 s6 scaling factor         :     1.0000 
 a1 scaling factor         :     0.4860 
 s8 scaling factor         :     0.0000 
 a2 scaling factor         :     4.5000 
 Damping factor alpha9(ATM):    16.0000 
 ad hoc parameters k1-k3   :    16.0000     1.3333    -4.0000 

 Edisp/kcal,au: -4.008753954970  -0.006388355384 
 E6   /kcal   :  -4.017082980 
 E8   /kcal   :  -0.000000000 
 E6(ABC)      :   0.008329025 
 % E8         :   0.000000000 
 % E6(ABC)    :  -0.207770917 

-------------------------   ----------------
Dispersion correction           -0.006388355
-------------------------   ----------------

------------------   -----------------
gCP correction             0.037300658
------------------   -----------------

-------------------------   --------------------
FINAL SINGLE POINT ENERGY      -308.206933094479
-------------------------   --------------------


                            ***************************************
                            *     ORCA property calculations      *
                            ***************************************

                                    ---------------------
                                    Active property flags
                                    ---------------------
   (+) Dipole Moment


------------------------------------------------------------------------------
                       ORCA ELECTRIC PROPERTIES CALCULATION
------------------------------------------------------------------------------

Dipole Moment Calculation                       ... on
Quadrupole Moment Calculation                   ... off
Polarizability Calculation                      ... off
GBWName                                         ... pbeh-3c.gbw
Electron density                                ... pbeh-3c.scfp
The origin for moment calculation is the CENTER OF MASS  = ( 0.000000, -0.000000  0.000000)

-------------
DIPOLE MOMENT
-------------
                                X             Y             Z
Electronic contribution:      0.00000       0.00000       0.00000
Nuclear contribution   :      0.00000       0.00000       0.00000
                        -----------------------------------------
Total Dipole Moment    :      0.00000       0.00000       0.00000
                        -----------------------------------------
Magnitude (a.u.)       :      0.00000
Magnitude (Debye)      :      0.00000



--------------------
Rotational spectrum 
--------------------
 
Rotational constants in cm-1:     0.565381     0.037784     0.036556 
Rotational constants in MHz : 16949.682714  1132.737078  1095.919842 

 Dipole components along the rotational axes: 
x,y,z [a.u.] :     0.000000    -0.000000     0.000000 
x,y,z [Debye]:     0.000000    -0.000000     0.000000 

 

Timings for individual modules:

Sum of individual times         ...       83.298 sec (=   1.388 min)
GTO integral calculation        ...        3.204 sec (=   0.053 min)   3.8 %
SCF iterations                  ...       80.093 sec (=   1.335 min)  96.2 %
                             ****ORCA TERMINATED NORMALLY****
TOTAL RUN TIME: 0 days 0 hours 1 minutes 29 seconds 227 msec
