
                                 *****************
                                 * O   R   C   A *
                                 *****************

                                            #,                                       
                                            ###                                      
                                            ####                                     
                                            #####                                    
                                            ######                                   
                                           ########,                                 
                                     ,,################,,,,,                         
                               ,,#################################,,                 
                          ,,##########################################,,             
                       ,#########################################, ''#####,          
                    ,#############################################,,   '####,        
                  ,##################################################,,,,####,       
                ,###########''''           ''''###############################       
              ,#####''   ,,,,##########,,,,          '''####'''          '####       
            ,##' ,,,,###########################,,,                        '##       
           ' ,,###''''                  '''############,,,                           
         ,,##''                                '''############,,,,        ,,,,,,###''
      ,#''                                            '''#######################'''  
     '                                                          ''''####''''         
             ,#######,   #######,   ,#######,      ##                                
            ,#'     '#,  ##    ##  ,#'     '#,    #''#        ######   ,####,        
            ##       ##  ##   ,#'  ##            #'  '#       #        #'  '#        
            ##       ##  #######   ##           ,######,      #####,   #    #        
            '#,     ,#'  ##    ##  '#,     ,#' ,#      #,         ##   #,  ,#        
             '#######'   ##     ##  '#######'  #'      '#     #####' # '####'        



                  #######################################################
                  #                        -***-                        #
                  #          Department of theory and spectroscopy      #
                  #    Directorship and core code : Frank Neese         #
                  #        Max Planck Institute fuer Kohlenforschung    #
                  #                Kaiser Wilhelm Platz 1               #
                  #                 D-45470 Muelheim/Ruhr               #
                  #                      Germany                        #
                  #                                                     #
                  #                  All rights reserved                #
                  #                        -***-                        #
                  #######################################################


                         Program Version 5.0.3 -  RELEASE  -


 With contributions from (in alphabetic order):
   Daniel Aravena         : Magnetic Suceptibility
   Michael Atanasov       : Ab Initio Ligand Field Theory (pilot matlab implementation)
   Alexander A. Auer      : GIAO ZORA, VPT2 properties, NMR spectrum
   Ute Becker             : Parallelization
   Giovanni Bistoni       : ED, misc. LED, open-shell LED, HFLD
   Martin Brehm           : Molecular dynamics
   Dmytro Bykov           : SCF Hessian
   Vijay G. Chilkuri      : MRCI spin determinant printing, contributions to CSF-ICE
   Dipayan Datta          : RHF DLPNO-CCSD density
   Achintya Kumar Dutta   : EOM-CC, STEOM-CC
   Dmitry Ganyushin       : Spin-Orbit,Spin-Spin,Magnetic field MRCI
   Miquel Garcia          : C-PCM and meta-GGA Hessian, CC/C-PCM, Gaussian charge scheme
   Yang Guo               : DLPNO-NEVPT2, F12-NEVPT2, CIM, IAO-localization
   Andreas Hansen         : Spin unrestricted coupled pair/coupled cluster methods
   Benjamin Helmich-Paris : MC-RPA, TRAH-SCF, COSX integrals
   Lee Huntington         : MR-EOM, pCC
   Robert Izsak           : Overlap fitted RIJCOSX, COSX-SCS-MP3, EOM
   Marcus Kettner         : VPT2
   Christian Kollmar      : KDIIS, OOCD, Brueckner-CCSD(T), CCSD density, CASPT2, CASPT2-K
   Simone Kossmann        : Meta GGA functionals, TD-DFT gradient, OOMP2, MP2 Hessian
   Martin Krupicka        : Initial AUTO-CI
   Lucas Lang             : DCDCAS
   Marvin Lechner         : AUTO-CI (C++ implementation), FIC-MRCC
   Dagmar Lenk            : GEPOL surface, SMD
   Dimitrios Liakos       : Extrapolation schemes; Compound Job, initial MDCI parallelization
   Dimitrios Manganas     : Further ROCIS development; embedding schemes
   Dimitrios Pantazis     : SARC Basis sets
   Anastasios Papadopoulos: AUTO-CI, single reference methods and gradients
   Taras Petrenko         : DFT Hessian,TD-DFT gradient, ASA, ECA, R-Raman, ABS, FL, XAS/XES, NRVS
   Peter Pinski           : DLPNO-MP2, DLPNO-MP2 Gradient
   Christoph Reimann      : Effective Core Potentials
   Marius Retegan         : Local ZFS, SOC
   Christoph Riplinger    : Optimizer, TS searches, QM/MM, DLPNO-CCSD(T), (RO)-DLPNO pert. Triples
   Tobias Risthaus        : Range-separated hybrids, TD-DFT gradient, RPA, STAB
   Michael Roemelt        : Original ROCIS implementation
   Masaaki Saitow         : Open-shell DLPNO-CCSD energy and density
   Barbara Sandhoefer     : DKH picture change effects
   Avijit Sen             : IP-ROCIS
   Kantharuban Sivalingam : CASSCF convergence, NEVPT2, FIC-MRCI
   Bernardo de Souza      : ESD, SOC TD-DFT
   Georgi Stoychev        : AutoAux, RI-MP2 NMR, DLPNO-MP2 response
   Willem Van den Heuvel  : Paramagnetic NMR
   Boris Wezisla          : Elementary symmetry handling
   Frank Wennmohs         : Technical directorship


 We gratefully acknowledge several colleagues who have allowed us to
 interface, adapt or use parts of their codes:
   Stefan Grimme, W. Hujo, H. Kruse, P. Pracht,  : VdW corrections, initial TS optimization,
                  C. Bannwarth, S. Ehlert          DFT functionals, gCP, sTDA/sTD-DF
   Ed Valeev, F. Pavosevic, A. Kumar             : LibInt (2-el integral package), F12 methods
   Garnet Chan, S. Sharma, J. Yang, R. Olivares  : DMRG
   Ulf Ekstrom                                   : XCFun DFT Library
   Mihaly Kallay                                 : mrcc  (arbitrary order and MRCC methods)
   Jiri Pittner, Ondrej Demel                    : Mk-CCSD
   Frank Weinhold                                : gennbo (NPA and NBO analysis)
   Christopher J. Cramer and Donald G. Truhlar   : smd solvation model
   Lars Goerigk                                  : TD-DFT with DH, B97 family of functionals
   V. Asgeirsson, H. Jonsson                     : NEB implementation
   FAccTs GmbH                                   : IRC, NEB, NEB-TS, DLPNO-Multilevel, CI-OPT
                                                   MM, QMMM, 2- and 3-layer-ONIOM, Crystal-QMMM,
                                                   LR-CPCM, SF, NACMEs, symmetry and pop. for TD-DFT,
                                                   nearIR, NL-DFT gradient (VV10), updates on ESD,
                                                   ML-optimized integration grids
   S Lehtola, MJT Oliveira, MAL Marques          : LibXC Library
   Liviu Ungur et al                             : ANISO software


 Your calculation uses the libint2 library for the computation of 2-el integrals
 For citations please refer to: http://libint.valeyev.net

 Your ORCA version has been built with support for libXC version: 5.1.0
 For citations please refer to: https://tddft.org/programs/libxc/

 This ORCA versions uses:
   CBLAS   interface :  Fast vector & matrix operations
   LAPACKE interface :  Fast linear algebra routines
   SCALAPACK package :  Parallel linear algebra routines
   Shared memory     :  Shared parallel matrices
   BLAS/LAPACK       :  OpenBLAS 0.3.15  USE64BITINT DYNAMIC_ARCH NO_AFFINITY Haswell SINGLE_THREADED
        Core in use  :  Haswell
   Copyright (c) 2011-2014, The OpenBLAS Project




***************************************
The coordinates will be read from file: teme.xyz
***************************************


Your calculation utilizes the geometrical counterpoise correction gCP
Please cite in your paper:
H.Kruse, S. Grimme J.Chem.Phys., 136, (2012), 154101 
   

Your calculation utilizes the atom-pairwise dispersion correction
with the Becke-Johnson damping scheme (D3BJ)
Cite in your paper:
S.Grimme, S.Ehrlich, L.Goerigk, J Comput Chem, (2011), 32, 1456–1465 
S.Grimme, J.Antony, S.Ehrlich and H.Krieg, J.Chem.Phys., 132, (2010), 154104 
   

Your calculation employs the composite approach PBEh-3c.
Please cite in your paper:
S. Grimme, J. G. Brandenburg, C. Bannwarth, A. Hansen J.Chem.Phys., 143, (2015), 054107 
   

================================================================================

cite the ECPs for Te [Def2-ECP] as follows:
Ce-Yb(ecp-28): M. Dolg, H. Stoll, H.Preuss, J. Chem. Phys., 1989, 90, 1730-1734.
Y-Cd(ecp-28), Hf-Hg(ecp-46): D. Andrae,U. Haeussermann, M. Dolg, H. Stoll, H. Preuss, Theor. Chim. Acta, 1990, 77, 123-141.
In-Sb(ecp-28), Tl-Bi(ecp-46): B. Metz, H. Stoll, M. Dolg, J. Chem. Phys., 2000, 113, 2563-2569.
Te-Xe(ecp-28), Po-Rn(ecp-46): K. A. Peterson, D. Figgen, E. Goll, H. Stoll, M. Dolg, J. Chem. Phys., 2003, 119, 11113-11123.
Rb(ecp-28), Cs(ecp-46): T. Leininger, A. Nicklass, W. Kuechle, H. Stoll, M. Dolg, A. Bergner, Chem. Phys. Lett., 1996, 255, 274-280.
Sr(ecp-28), Ba(ecp-46): M. Kaupp, P. V. Schleyer, H. Stoll and H. Preuss, J. Chem. Phys., 1991, 94, 1360-1366.
La(ecp-46): M. Dolg, H. Stoll, A. Savin, H. Preuss, Theor. Chim. Acta, 1989, 75, 173-194.
Lu(ecp-28): X. Cao, M. Dolg, J. Chem. Phys., 2001, 115, 7348-7355.

ECP parameters for Te [Def2-ECP] have been obtained from:
TURBOMOLE (7.0.2)

----- Orbital basis set information -----
Your calculation utilizes the basis: def2-mSVP

----- AuxJ basis set information -----
Your calculation utilizes the auxiliary basis: def2/J
   F. Weigend, Phys. Chem. Chem. Phys. 8, 1057 (2006).

================================================================================
                                        WARNINGS
                       Please study these warnings very carefully!
================================================================================


WARNING: your system is open-shell and RHF/RKS was chosen
  ===> : WILL SWITCH to UHF/UKS


INFO   : the flag for use of the SHARK integral package has been found!

================================================================================
                                       INPUT FILE
================================================================================
NAME = pbeh-3c.inp
|  1> ! PBEh-3c def2/J TightSCF DefGrid3
|  2> 
|  3> %maxcore 60000
|  4> 
|  5> %pal
|  6> nprocs 4
|  7> end
|  8> 
|  9> *xyzfile 0 2 teme.xyz
| 10> 
| 11>                          ****END OF INPUT****
================================================================================

                       ****************************
                       * Single Point Calculation *
                       ****************************

---------------------------------
CARTESIAN COORDINATES (ANGSTROEM)
---------------------------------
  Te    -1.885524   -0.363926    0.000000
  C      0.215054    0.025011    0.000000
  H      0.670201   -0.385556    0.897066
  H      0.670201   -0.385556   -0.897066
  H      0.330068    1.110027    0.000000

----------------------------
CARTESIAN COORDINATES (A.U.)
----------------------------
  NO LB      ZA    FRAG     MASS         X           Y           Z
   0 Te   24.0000*   0   127.600   -3.563124   -0.687720    0.000000
   1 C     6.0000    0    12.011    0.406393    0.047264    0.000000
   2 H     1.0000    0     1.008    1.266497   -0.728595    1.695210
   3 H     1.0000    0     1.008    1.266497   -0.728595   -1.695210
   4 H     1.0000    0     1.008    0.623738    2.097646    0.000000
* core charge reduced due to ECP

--------------------------------
INTERNAL COORDINATES (ANGSTROEM)
--------------------------------
 Te     0   0   0     0.000000000000     0.00000000     0.00000000
 C      1   0   0     2.136281412822     0.00000000     0.00000000
 H      2   1   0     1.086486212804   110.06688985     0.00000000
 H      2   1   3     1.086486212804   110.06688985   123.04904654
 H      2   1   3     1.091094558436   106.54080175   241.52452327

---------------------------
INTERNAL COORDINATES (A.U.)
---------------------------
 Te     0   0   0     0.000000000000     0.00000000     0.00000000
 C      1   0   0     4.036986815220     0.00000000     0.00000000
 H      2   1   0     2.053161390482   110.06688985     0.00000000
 H      2   1   3     2.053161390482   110.06688985   123.04904654
 H      2   1   3     2.061869901655   106.54080175   241.52452327

---------------------
BASIS SET INFORMATION
---------------------
There are 3 groups of distinct atoms

 Group   1 Type Te  : 10s7p6d contracted to 4s4p2d pattern {6211/4111/51}
 Group   2 Type C   : 8s4p1d contracted to 4s2p1d pattern {5111/31/1}
 Group   3 Type H   : 4s contracted to 2s pattern {31}

Atom   0Te   basis set group =>   1
Atom   1C    basis set group =>   2
Atom   2H    basis set group =>   3
Atom   3H    basis set group =>   3
Atom   4H    basis set group =>   3
---------------------------------
AUXILIARY/J BASIS SET INFORMATION
---------------------------------
There are 3 groups of distinct atoms

 Group   1 Type Te  : 11s5p5d3f1g contracted to 8s4p3d2f1g pattern {41111111/2111/311/21/1}
 Group   2 Type C   : 12s5p4d2f1g contracted to 6s4p3d1f1g pattern {711111/2111/211/2/1}
 Group   3 Type H   : 5s2p1d contracted to 3s1p1d pattern {311/2/1}

Atom   0Te   basis set group =>   1
Atom   1C    basis set group =>   2
Atom   2H    basis set group =>   3
Atom   3H    basis set group =>   3
Atom   4H    basis set group =>   3
-------------------------
ECP PARAMETER INFORMATION
-------------------------

 Group 1, Type Te ECP Def2-ECP (replacing 28 core electrons, lmax=3)

Atom   0Te   ECP group =>   1



           ************************************************************
           *        Program running with 4 parallel MPI-processes     *
           *              working on a common directory               *
           ************************************************************
------------------------------------------------------------------------------
                           ORCA GTO INTEGRAL CALCULATION
                           -- RI-GTO INTEGRALS CHOSEN --
------------------------------------------------------------------------------
------------------------------------------------------------------------------
                   ___                                                        
                  /   \      - P O W E R E D   B Y -                         
                 /     \                                                     
                 |  |  |   _    _      __       _____    __    __             
                 |  |  |  | |  | |    /  \     |  _  \  |  |  /  |          
                  \  \/   | |  | |   /    \    | | | |  |  | /  /          
                 / \  \   | |__| |  /  /\  \   | |_| |  |  |/  /          
                |  |  |   |  __  | /  /__\  \  |    /   |      \           
                |  |  |   | |  | | |   __   |  |    \   |  |\   \          
                \     /   | |  | | |  |  |  |  | |\  \  |  | \   \       
                 \___/    |_|  |_| |__|  |__|  |_| \__\ |__|  \__/        
                                                                              
                      - O R C A' S   B I G   F R I E N D -                    
                                      &                                       
                       - I N T E G R A L  F E E D E R -                       
                                                                              
 v1 FN, 2020, v2 2021                                                         
------------------------------------------------------------------------------


Reading SHARK input file pbeh-3c.SHARKINP.tmp ... ok
----------------------
SHARK INTEGRAL PACKAGE
----------------------

Number of atoms                             ...      5
Number of basis functions                   ...     47
Number of shells                            ...     23
Maximum angular momentum                    ...      2
Integral batch strategy                     ... SHARK/LIBINT Hybrid
RI-J (if used) integral strategy            ... SPLIT-RIJ (Revised 2003 algorithm where possible)
Printlevel                                  ...      1
Contraction scheme used                     ... SEGMENTED contraction
Coulomb Range Separation                    ... NOT USED
Exchange Range Separation                   ... NOT USED
Finite Nucleus Model                        ... NOT USED
Auxiliary Coulomb fitting basis             ... AVAILABLE
   # of basis functions in Aux-J            ...    140
   # of shells in Aux-J                     ...     48
   Maximum angular momentum in Aux-J        ...      4
Auxiliary J/K fitting basis                 ... NOT available
Auxiliary Correlation fitting basis         ... NOT available
Auxiliary 'external' fitting basis          ... NOT available
Integral threshold                          ...     2.500000e-11
Primitive cut-off                           ...     2.500000e-12
Primitive pair pre-selection threshold      ...     2.500000e-12

Calculating pre-screening integrals         ... done (  0.1 sec) Dimension = 23
Organizing shell pair data                  ... done (  0.4 sec)
Shell pair information
Total number of shell pairs                 ...       276
Shell pairs after pre-screening             ...       275
Total number of primitive shell pairs       ...      1230
Primitive shell pairs kept                  ...      1042
          la=0 lb=0:    105 shell pairs
          la=1 lb=0:     83 shell pairs
          la=1 lb=1:     21 shell pairs
          la=2 lb=0:     42 shell pairs
          la=2 lb=1:     18 shell pairs
          la=2 lb=2:      6 shell pairs

Calculating one electron integrals          ... done (  0.1 sec)
Calculating ECP integrals                   ... done (  0.1 sec)
Calculating RI/J V-Matrix + Cholesky decomp.... done (  0.8 sec)
Calculating Nuclear repulsion               ... done (  0.1 sec) ENN=     59.465421027518 Eh

SHARK setup successfully completed in   3.5 seconds

Maximum memory used throughout the entire GTOINT-calculation: 9.8 MB


           ************************************************************
           *        Program running with 4 parallel MPI-processes     *
           *              working on a common directory               *
           ************************************************************
-------------------------------------------------------------------------------
                                 ORCA SCF
-------------------------------------------------------------------------------

------------
SCF SETTINGS
------------
Hamiltonian:
 Density Functional     Method          .... DFT(GTOs)
 Exchange Functional    Exchange        .... PBE
   PBE kappa parameter   XKappa         ....  1.024500
   PBE mue parameter    XMuePBE         ....  0.123457
 Correlation Functional Correlation     .... PBE
   PBE beta parameter  CBetaPBE         ....  0.030000
 LDA part of GGA corr.  LDAOpt          .... PW91-LDA
 Gradients option       PostSCFGGA      .... off
 Hybrid DFT is turned on
   Fraction HF Exchange ScalHFX         ....  0.420000
   Scaling of DF-GGA-X  ScalDFX         ....  0.580000
   Scaling of DF-GGA-C  ScalDFC         ....  1.000000
   Scaling of DF-LDA-C  ScalLDAC        ....  1.000000
   Perturbative correction              ....  0.000000
   Density functional embedding theory  .... OFF
 RI-approximation to the Coulomb term is turned on
   Number of AuxJ basis functions       .... 140
   RIJ-ON(X) (HFX calculated with O(N)) .... on
   Number of AuxJ basis functions       .... 140
   RIJ-COSX (HFX calculated with COS-X)).... on


General Settings:
 Integral files         IntName         .... pbeh-3c
 Hartree-Fock type      HFTyp           .... UHF
 Total Charge           Charge          ....    0
 Multiplicity           Mult            ....    2
 Number of Electrons    NEL             ....   33
 Basis Dimension        Dim             ....   47
 Nuclear Repulsion      ENuc            ....     59.4654210275 Eh

Convergence Acceleration:
 DIIS                   CNVDIIS         .... on
   Start iteration      DIISMaxIt       ....    12
   Startup error        DIISStart       ....  0.200000
   # of expansion vecs  DIISMaxEq       ....     5
   Bias factor          DIISBfac        ....   1.050
   Max. coefficient     DIISMaxC        ....  10.000
 Trust-Rad. Augm. Hess. CNVTRAH         .... auto
   Auto Start mean grad. ratio tolernc. ....  1.125000
   Auto Start start iteration           ....    20
   Auto Start num. interpolation iter.  ....    10
   Max. Number of Micro iterations      ....    16
   Max. Number of Macro iterations      .... Maxiter - #DIIS iter
   Number of Davidson start vectors     ....     2
   Converg. threshold I  (grad. norm)   ....   1.000e-05
   Converg. threshold II (energy diff.) ....   1.000e-08
   Grad. Scal. Fac. for Micro threshold ....   0.100
   Minimum threshold for Micro iter.    ....   0.010
   NR start threshold (gradient norm)   ....   0.001
   Initial trust radius                 ....   0.400
   Minimum AH scaling param. (alpha)    ....   1.000
   Maximum AH scaling param. (alpha)    .... 1000.000
   Orbital update algorithm             .... Taylor
   White noise on init. David. guess    .... on
   Maximum white noise                  ....   0.010
   Quad. conv. algorithm                .... NR
   COSX micro iterations for RIJONX calc.... off
 SOSCF                  CNVSOSCF        .... off
 Level Shifting         CNVShift        .... on
   Level shift para.    LevelShift      ....    0.2500
   Turn off err/grad.   ShiftErr        ....    0.0010
 Zerner damping         CNVZerner       .... off
 Static damping         CNVDamp         .... on
   Fraction old density DampFac         ....    0.7000
   Max. Damping (<1)    DampMax         ....    0.9800
   Min. Damping (>=0)   DampMin         ....    0.0000
   Turn off err/grad.   DampErr         ....    0.1000
 Fernandez-Rico         CNVRico         .... off

SCF Procedure:
 Maximum # iterations   MaxIter         ....   125
 SCF integral mode      SCFMode         .... Direct
   Integral package                     .... SHARK and LIBINT hybrid scheme
 Reset frequency        DirectResetFreq ....    20
 Integral Threshold     Thresh          ....  2.500e-11 Eh
 Primitive CutOff       TCut            ....  2.500e-12 Eh

Convergence Tolerance:
 Convergence Check Mode ConvCheckMode   .... Total+1el-Energy
 Convergence forced     ConvForced      .... 0
 Energy Change          TolE            ....  1.000e-08 Eh
 1-El. energy change                    ....  1.000e-05 Eh
 DIIS Error             TolErr          ....  5.000e-07


Diagonalization of the overlap matrix:
Smallest eigenvalue                        ... 2.027e-02
Time for diagonalization                   ...    0.001 sec
Threshold for overlap eigenvalues          ... 1.000e-08
Number of eigenvalues below threshold      ... 0
Time for construction of square roots      ...    0.394 sec
Total time needed                          ...    0.548 sec

--------------------------------
INITIAL GUESS: MINIMAL BASIS EHT
--------------------------------
The minimal basis has 21 functions
EHT matrix was diagonalized
Basis set overlap was calculated now projecting the orbitals
Using GuessMode=FMatrix for the initial guess
C*T matrix was formed
Effective Fockian was calculated
Effective Fockian was diagonalized
Initial density was built
                      ------------------
                      INITIAL GUESS DONE
                      ------------------
-------------------
DFT GRID GENERATION
-------------------

General Integration Accuracy     IntAcc      ... 4.959
Radial Grid Type                 RadialGrid  ... OptM3 with GC (2021)
Angular Grid (max. ang.)         AngularGrid ... 6 (Lebedev-590)
Angular grid pruning method      GridPruning ... 4 (adaptive)
Weight generation scheme         WeightScheme... Becke
Basis function cutoff            BFCut       ... 1.0000e-11
Integration weight cutoff        WCut        ... 1.0000e-14
Angular grids for H and He will be reduced by one unit
Partially contracted basis set               ... off
Rotationally invariant grid construction     ... off

Total number of grid points                  ...    66109
Total number of batches                      ...     1036
Average number of points per batch           ...       63
Average number of grid points per atom       ...    13222
Time for grid setup =    1.826 sec

--------------------
COSX GRID GENERATION
--------------------

GRIDX 1
-------
General Integration Accuracy     IntAcc      ... 4.020
Radial Grid Type                 RadialGrid  ... OptM3 with GC (2021)
Angular Grid (max. ang.)         AngularGrid ... 2 (Lebedev-110)
Angular grid pruning method      GridPruning ... 4 (adaptive)
Weight generation scheme         WeightScheme... Becke
Basis function cutoff            BFCut       ... 1.0000e-11
Integration weight cutoff        WCut        ... 1.0000e-14
Angular grids for H and He will be reduced by one unit
Partially contracted basis set               ... on
Rotationally invariant grid construction     ... off

Total number of grid points                  ...     7301
Total number of batches                      ...      116
Average number of points per batch           ...       62
Average number of grid points per atom       ...     1460
UseSFitting                                  ... on

GRIDX 2
-------
General Integration Accuracy     IntAcc      ... 4.338
Radial Grid Type                 RadialGrid  ... OptM3 with GC (2021)
Angular Grid (max. ang.)         AngularGrid ... 3 (Lebedev-194)
Angular grid pruning method      GridPruning ... 4 (adaptive)
Weight generation scheme         WeightScheme... Becke
Basis function cutoff            BFCut       ... 1.0000e-11
Integration weight cutoff        WCut        ... 1.0000e-14
Angular grids for H and He will be reduced by one unit
Partially contracted basis set               ... on
Rotationally invariant grid construction     ... off

Total number of grid points                  ...    15460
Total number of batches                      ...      243
Average number of points per batch           ...       63
Average number of grid points per atom       ...     3092
UseSFitting                                  ... on

GRIDX 3
-------
General Integration Accuracy     IntAcc      ... 4.871
Radial Grid Type                 RadialGrid  ... OptM3 with GC (2021)
Angular Grid (max. ang.)         AngularGrid ... 4 (Lebedev-302)
Angular grid pruning method      GridPruning ... 4 (adaptive)
Weight generation scheme         WeightScheme... Becke
Basis function cutoff            BFCut       ... 1.0000e-11
Integration weight cutoff        WCut        ... 1.0000e-14
Angular grids for H and He will be reduced by one unit
Partially contracted basis set               ... on
Rotationally invariant grid construction     ... off

Total number of grid points                  ...    30035
Total number of batches                      ...      470
Average number of points per batch           ...       63
Average number of grid points per atom       ...     6007
UseSFitting                                  ... on

Time for X-Grid setup             =    2.458 sec

--------------
SCF ITERATIONS
--------------
ITER       Energy         Delta-E        Max-DP      RMS-DP      [F,P]     Damp
               ***  Starting incremental Fock matrix formation  ***
  0   -306.4301435101   0.000000000000 0.12527712  0.00732265  0.6035403 0.7000
  1   -306.8502820117  -0.420138501536 0.09949940  0.00533125  0.4270893 0.7000
  2   -307.1468541567  -0.296572144977 0.08243912  0.00393693  0.3025755 0.7000
  3   -307.3561201807  -0.209266024019 0.06760489  0.00292347  0.2144211 0.7000
                               ***Turning on DIIS***
  4   -307.5036794222  -0.147559241573 0.05418179  0.00217541  0.1519611 0.7000
  5   -307.6076113686  -0.103931946393 0.04763657  0.00172402  0.1076959 0.7000
  6   -307.6807420932  -0.073130724566 0.12642891  0.00436016  0.0757050 0.0000
  7   -307.8528688172  -0.172126724015 0.00801766  0.00020332  0.0010324 0.0000
  8   -307.8528949350  -0.000026117754 0.00473121  0.00011548  0.0003852 0.0000
               *** Restarting incremental Fock matrix formation ***
                                   *** Resetting DIIS ***
  9   -307.8528980419  -0.000003106896 0.00025095  0.00001457  0.0001595 0.0000
 10   -307.8528983271  -0.000000285218 0.00012887  0.00000558  0.0000975 0.0000
 11   -307.8528984060  -0.000000078886 0.00014906  0.00000723  0.0000714 0.0000
 12   -307.8528984621  -0.000000056167 0.00006363  0.00000285  0.0000305 0.0000
 13   -307.8528984697  -0.000000007571 0.00001437  0.00000068  0.0000058 0.0000
 14   -307.8528984698  -0.000000000053 0.00000595  0.00000017  0.0000012 0.0000
                 **** Energy Check signals convergence ****

               *****************************************************
               *                     SUCCESS                       *
               *           SCF CONVERGED AFTER  15 CYCLES          *
               *****************************************************

Old exchange energy                            =    -10.917214136 Eh
New exchange energy                            =    -10.917216098 Eh
Exchange energy change after final integration =     -0.000001962 Eh
Total energy after final integration           =   -307.852900431 Eh
Final COS-X integration done in                =     0.965 sec

----------------
TOTAL SCF ENERGY
----------------

Total Energy       :         -307.85290043 Eh           -8377.10330 eV

Components:
Nuclear Repulsion  :           59.46542103 Eh            1618.13637 eV
Electronic Energy  :         -367.31832146 Eh           -9995.23968 eV
One Electron Energy:         -638.47525334 Eh          -17373.79491 eV
Two Electron Energy:          271.15693189 Eh            7378.55524 eV
Max COSX asymmetry :            0.00000029 Eh               0.00001 eV

Virial components:
Potential Energy   :         -449.91634831 Eh          -12242.84625 eV
Kinetic Energy     :          142.06344788 Eh            3865.74295 eV
Virial Ratio       :            3.16700992


DFT components:
N(Alpha)           :       17.000000184268 electrons
N(Beta)            :       16.000000204034 electrons
N(Total)           :       33.000000388302 electrons
E(X)               :      -14.665615136358 Eh       
E(C)               :       -1.678551668754 Eh       
E(XC)              :      -16.344166805112 Eh       
DFET-embed. en.    :        0.000000000000 Eh       

---------------
SCF CONVERGENCE
---------------

  Last Energy change         ...    1.3506e-10  Tolerance :   1.0000e-08
  Last MAX-Density change    ...    0.0000e+00  Tolerance :   1.0000e-07
  Last RMS-Density change    ...    0.0000e+00  Tolerance :   5.0000e-09
  Last DIIS Error            ...    3.3486e-07  Tolerance :   5.0000e-07

             **** THE GBW FILE WAS UPDATED (pbeh-3c.gbw) ****
             **** DENSITY pbeh-3c.scfp WAS UPDATED ****
             **** ENERGY FILE WAS UPDATED (pbeh-3c.en.tmp) ****
----------------------
UHF SPIN CONTAMINATION
----------------------

Warning: in a DFT calculation there is little theoretical justification to 
         calculate <S**2> as in Hartree-Fock theory. We will do it anyways
         but you should keep in mind that the values have only limited relevance

Expectation value of <S**2>     :     0.753483
Ideal value S*(S+1) for S=0.5   :     0.750000
Deviation                       :     0.003483

             **** THE GBW FILE WAS UPDATED (pbeh-3c.gbw) ****
             **** DENSITY pbeh-3c.scfp WAS UPDATED ****
----------------
ORBITAL ENERGIES
----------------
                 SPIN UP ORBITALS
  NO   OCC          E(Eh)            E(eV) 
   0   1.0000     -10.464799      -284.7617 
   1   1.0000      -6.502123      -176.9318 
   2   1.0000      -4.598134      -125.1216 
   3   1.0000      -4.591229      -124.9337 
   4   1.0000      -4.577534      -124.5610 
   5   1.0000      -1.705882       -46.4194 
   6   1.0000      -1.704859       -46.3916 
   7   1.0000      -1.692478       -46.0547 
   8   1.0000      -1.688016       -45.9332 
   9   1.0000      -1.685455       -45.8636 
  10   1.0000      -0.811065       -22.0702 
  11   1.0000      -0.655658       -17.8414 
  12   1.0000      -0.487283       -13.2596 
  13   1.0000      -0.485267       -13.2048 
  14   1.0000      -0.370005       -10.0684 
  15   1.0000      -0.294814        -8.0223 
  16   1.0000      -0.255187        -6.9440 
  17   0.0000       0.019211         0.5228 
  18   0.0000       0.157601         4.2885 
  19   0.0000       0.181007         4.9255 
  20   0.0000       0.188466         5.1284 
  21   0.0000       0.280227         7.6254 
  22   0.0000       0.359055         9.7704 
  23   0.0000       0.374480        10.1901 
  24   0.0000       0.375517        10.2183 
  25   0.0000       0.382376        10.4050 
  26   0.0000       0.391496        10.6531 
  27   0.0000       0.393751        10.7145 
  28   0.0000       0.400008        10.8848 
  29   0.0000       0.501444        13.6450 
  30   0.0000       0.586260        15.9529 
  31   0.0000       0.609201        16.5772 
  32   0.0000       0.692363        18.8402 
  33   0.0000       1.007089        27.4043 
  34   0.0000       1.019118        27.7316 
  35   0.0000       1.068044        29.0629 
  36   0.0000       1.207099        32.8468 
  37   0.0000       1.742623        47.4192 
  38   0.0000       1.745953        47.5098 
  39   0.0000       2.054073        55.8942 
  40   0.0000       2.290283        62.3218 
  41   0.0000       2.295689        62.4689 
  42   0.0000      13.670742       371.9998 
  43   0.0000      18.713227       509.2128 
  44   0.0000      18.731736       509.7165 
  45   0.0000      19.094709       519.5934 
  46   0.0000      52.571209      1430.5353 

                 SPIN DOWN ORBITALS
  NO   OCC          E(Eh)            E(eV) 
   0   1.0000     -10.465246      -284.7738 
   1   1.0000      -6.497873      -176.8161 
   2   1.0000      -4.589830      -124.8956 
   3   1.0000      -4.588177      -124.8506 
   4   1.0000      -4.576239      -124.5258 
   5   1.0000      -1.699310       -46.2406 
   6   1.0000      -1.698489       -46.2182 
   7   1.0000      -1.686892       -45.9027 
   8   1.0000      -1.686228       -45.8846 
   9   1.0000      -1.682746       -45.7899 
  10   1.0000      -0.805384       -21.9156 
  11   1.0000      -0.618449       -16.8288 
  12   1.0000      -0.484594       -13.1865 
  13   1.0000      -0.480244       -13.0681 
  14   1.0000      -0.361707        -9.8425 
  15   1.0000      -0.241998        -6.5851 
  16   0.0000      -0.117563        -3.1991 
  17   0.0000       0.029604         0.8056 
  18   0.0000       0.160562         4.3691 
  19   0.0000       0.186626         5.0783 
  20   0.0000       0.189882         5.1670 
  21   0.0000       0.295634         8.0446 
  22   0.0000       0.390471        10.6253 
  23   0.0000       0.393136        10.6978 
  24   0.0000       0.396854        10.7990 
  25   0.0000       0.402308        10.9474 
  26   0.0000       0.407992        11.1020 
  27   0.0000       0.423521        11.5246 
  28   0.0000       0.428262        11.6536 
  29   0.0000       0.503814        13.7095 
  30   0.0000       0.595772        16.2118 
  31   0.0000       0.611224        16.6323 
  32   0.0000       0.700984        19.0747 
  33   0.0000       1.009737        27.4763 
  34   0.0000       1.019644        27.7459 
  35   0.0000       1.068843        29.0847 
  36   0.0000       1.209480        32.9116 
  37   0.0000       1.741645        47.3926 
  38   0.0000       1.746851        47.5342 
  39   0.0000       2.053419        55.8764 
  40   0.0000       2.289979        62.3135 
  41   0.0000       2.296463        62.4899 
  42   0.0000      13.670235       371.9860 
  43   0.0000      18.727247       509.5943 
  44   0.0000      18.733733       509.7708 
  45   0.0000      19.097061       519.6575 
  46   0.0000      52.573456      1430.5965 

                    ********************************
                    * MULLIKEN POPULATION ANALYSIS *
                    ********************************

--------------------------------------------
MULLIKEN ATOMIC CHARGES AND SPIN POPULATIONS
--------------------------------------------
   0 Te:    0.083303    1.016621
   1 C :   -0.864936   -0.044450
   2 H :    0.261771    0.004787
   3 H :    0.261771    0.004787
   4 H :    0.258091    0.018255
Sum of atomic charges         :   -0.0000000
Sum of atomic spin populations:    1.0000000

-----------------------------------------------------
MULLIKEN REDUCED ORBITAL CHARGES AND SPIN POPULATIONS
-----------------------------------------------------
CHARGE
  0 Tes       :     3.947489  s :     3.947489
      pz      :     3.982928  p :     9.921083
      px      :     2.929856
      py      :     3.008299
      dz2     :     2.007643  d :    10.048125
      dxz     :     2.007152
      dyz     :     2.000070
      dx2y2   :     2.022766
      dxy     :     2.010493
  1 C s       :     3.461723  s :     3.461723
      pz      :     1.175693  p :     3.374082
      px      :     1.041827
      py      :     1.156562
      dz2     :     0.006808  d :     0.029131
      dxz     :     0.008328
      dyz     :     0.004391
      dx2y2   :     0.007416
      dxy     :     0.002187
  2 H s       :     0.738229  s :     0.738229
  3 H s       :     0.738229  s :     0.738229
  4 H s       :     0.741909  s :     0.741909

SPIN
  0 Tes       :     0.005929  s :     0.005929
      pz      :     0.001230  p :     1.008261
      px      :     0.054773
      py      :     0.952258
      dz2     :    -0.000361  d :     0.002431
      dxz     :     0.000095
      dyz     :     0.000010
      dx2y2   :     0.002262
      dxy     :     0.000425
  1 C s       :    -0.007236  s :    -0.007236
      pz      :    -0.003520  p :    -0.039160
      px      :    -0.028750
      py      :    -0.006891
      dz2     :     0.000209  d :     0.001947
      dxz     :     0.000004
      dyz     :     0.000018
      dx2y2   :     0.000644
      dxy     :     0.001072
  2 H s       :     0.004787  s :     0.004787
  3 H s       :     0.004787  s :     0.004787
  4 H s       :     0.018255  s :     0.018255


                     *******************************
                     * LOEWDIN POPULATION ANALYSIS *
                     *******************************

-------------------------------------------
LOEWDIN ATOMIC CHARGES AND SPIN POPULATIONS
-------------------------------------------
   0 Te:    0.087512    0.991905
   1 C :   -0.529028   -0.018904
   2 H :    0.144723    0.004327
   3 H :    0.144723    0.004327
   4 H :    0.152069    0.018345

----------------------------------------------------
LOEWDIN REDUCED ORBITAL CHARGES AND SPIN POPULATIONS
----------------------------------------------------
CHARGE
  0 Tes       :     3.845513  s :     3.845513
      pz      :     3.968567  p :     9.985151
      px      :     3.010139
      py      :     3.006445
      dz2     :     2.013229  d :    10.081824
      dxz     :     2.012674
      dyz     :     2.000163
      dx2y2   :     2.038583
      dxy     :     2.017175
  1 C s       :     3.030412  s :     3.030412
      pz      :     1.171179  p :     3.448102
      px      :     1.118174
      py      :     1.158749
      dz2     :     0.011236  d :     0.050514
      dxz     :     0.014377
      dyz     :     0.006853
      dx2y2   :     0.013770
      dxy     :     0.004278
  2 H s       :     0.855277  s :     0.855277
  3 H s       :     0.855277  s :     0.855277
  4 H s       :     0.847931  s :     0.847931

SPIN
  0 Tes       :     0.003743  s :     0.003743
      pz      :     0.000723  p :     0.986518
      px      :     0.046222
      py      :     0.939573
      dz2     :    -0.001195  d :     0.001644
      dxz     :     0.000010
      dyz     :     0.000003
      dx2y2   :     0.002262
      dxy     :     0.000565
  1 C s       :    -0.003494  s :    -0.003494
      pz      :    -0.001775  p :    -0.019090
      px      :    -0.019794
      py      :     0.002478
      dz2     :     0.000446  d :     0.003680
      dxz     :    -0.000003
      dyz     :     0.000035
      dx2y2   :     0.001198
      dxy     :     0.002004
  2 H s       :     0.004327  s :     0.004327
  3 H s       :     0.004327  s :     0.004327
  4 H s       :     0.018345  s :     0.018345


                      *****************************
                      * MAYER POPULATION ANALYSIS *
                      *****************************

  NA   - Mulliken gross atomic population
  ZA   - Total nuclear charge
  QA   - Mulliken gross atomic charge
  VA   - Mayer's total valence
  BVA  - Mayer's bonded valence
  FA   - Mayer's free valence

  ATOM       NA         ZA         QA         VA         BVA        FA
  0 Te    23.9167    24.0000     0.0833     1.9987     1.0306     0.9681
  1 C      6.8649     6.0000    -0.8649     3.7156     3.7142     0.0014
  2 H      0.7382     1.0000     0.2618     0.8861     0.8861     0.0000
  3 H      0.7382     1.0000     0.2618     0.8861     0.8861     0.0000
  4 H      0.7419     1.0000     0.2581     0.8930     0.8927     0.0004

  Mayer bond orders larger than 0.100000
B(  0-Te,  1-C ) :   1.0209 B(  1-C ,  2-H ) :   0.8978 B(  1-C ,  3-H ) :   0.8978 
B(  1-C ,  4-H ) :   0.8976 

-------
TIMINGS
-------

Total SCF time: 0 days 0 hours 1 min 51 sec 

Total time                  ....     111.228 sec
Sum of individual times     ....      97.988 sec  ( 88.1%)

Fock matrix formation       ....      79.512 sec  ( 71.5%)
  Split-RI-J                ....       6.684 sec  (  8.4% of F)
  Chain of spheres X        ....       9.651 sec  ( 12.1% of F)
  XC integration            ....      21.963 sec  ( 27.6% of F)
    Basis function eval.    ....       1.034 sec  (  4.7% of XC)
    Density eval.           ....       0.857 sec  (  3.9% of XC)
    XC-Functional eval.     ....       1.157 sec  (  5.3% of XC)
    XC-Potential eval.      ....       0.442 sec  (  2.0% of XC)
Diagonalization             ....       2.650 sec  (  2.4%)
Density matrix formation    ....       0.002 sec  (  0.0%)
Population analysis         ....       2.101 sec  (  1.9%)
Initial guess               ....       0.280 sec  (  0.3%)
Orbital Transformation      ....       0.000 sec  (  0.0%)
Orbital Orthonormalization  ....       0.000 sec  (  0.0%)
DIIS solution               ....       9.158 sec  (  8.2%)
Grid generation             ....       4.285 sec  (  3.9%)

Maximum memory used throughout the entire SCF-calculation: 45.4 MB


-------------------------------------------------------------------------------
                          DFT DISPERSION CORRECTION                            
                                                                               
                              DFTD3 V3.1  Rev 1                                
                          USING Becke-Johnson damping                          
-------------------------------------------------------------------------------
The PBEh-3c composite method is recognized
Using three-body term ABC
Active option DFTDOPT                   ...         4   

molecular C6(AA) [au] = 902.167124 


            DFT-D V3
 parameters
 s6 scaling factor         :     1.0000 
 a1 scaling factor         :     0.4860 
 s8 scaling factor         :     0.0000 
 a2 scaling factor         :     4.5000 
 Damping factor alpha9(ATM):    16.0000 
 ad hoc parameters k1-k3   :    16.0000     1.3333    -4.0000 

 Edisp/kcal,au: -0.838772937283  -0.001336669616 
 E6   /kcal   :  -0.838836823 
 E8   /kcal   :  -0.000000000 
 E6(ABC)      :   0.000063886 
 % E8         :   0.000000000 
 % E6(ABC)    :  -0.007616565 

-------------------------   ----------------
Dispersion correction           -0.001336670
-------------------------   ----------------

 ** NOTE ** -> element te will be treated as se
NOTIFICATION: Different basis set in ORCA and otool_gcp:
ORCA: 47  gCP: 53 
If you are NOT using ECPs, check your basis set inputs!
------------------   -----------------
gCP correction             0.006235559
------------------   -----------------

-------------------------   --------------------
FINAL SINGLE POINT ENERGY      -307.848001541841
-------------------------   --------------------


                            ***************************************
                            *     ORCA property calculations      *
                            ***************************************

                                    ---------------------
                                    Active property flags
                                    ---------------------
   (+) Dipole Moment


------------------------------------------------------------------------------
                       ORCA ELECTRIC PROPERTIES CALCULATION
------------------------------------------------------------------------------

Dipole Moment Calculation                       ... on
Quadrupole Moment Calculation                   ... off
Polarizability Calculation                      ... off
GBWName                                         ... pbeh-3c.gbw
Electron density                                ... pbeh-3c.scfp
The origin for moment calculation is the CENTER OF MASS  = (-3.131009, -0.606722  0.000000)

-------------
DIPOLE MOMENT
-------------
                                X             Y             Z
Electronic contribution:    -22.92578      -4.33603      -0.00000
Nuclear contribution   :     23.40340       4.44059       0.00000
                        -----------------------------------------
Total Dipole Moment    :      0.47762       0.10455      -0.00000
                        -----------------------------------------
Magnitude (a.u.)       :      0.48893
Magnitude (Debye)      :      1.24277



--------------------
Rotational spectrum 
--------------------
 
Rotational constants in cm-1:     5.264445     0.250108     0.249951 
Rotational constants in MHz : 157824.098346  7498.056231  7493.331994 

 Dipole components along the rotational axes: 
x,y,z [a.u.] :    -0.488701    -0.000000     0.015075 
x,y,z [Debye]:    -1.242179    -0.000000     0.038318 

 

Timings for individual modules:

Sum of individual times         ...      117.212 sec (=   1.954 min)
GTO integral calculation        ...        5.005 sec (=   0.083 min)   4.3 %
SCF iterations                  ...      112.207 sec (=   1.870 min)  95.7 %
                             ****ORCA TERMINATED NORMALLY****
TOTAL RUN TIME: 0 days 0 hours 1 minutes 59 seconds 860 msec
