
                                 *****************
                                 * O   R   C   A *
                                 *****************

                                            #,                                       
                                            ###                                      
                                            ####                                     
                                            #####                                    
                                            ######                                   
                                           ########,                                 
                                     ,,################,,,,,                         
                               ,,#################################,,                 
                          ,,##########################################,,             
                       ,#########################################, ''#####,          
                    ,#############################################,,   '####,        
                  ,##################################################,,,,####,       
                ,###########''''           ''''###############################       
              ,#####''   ,,,,##########,,,,          '''####'''          '####       
            ,##' ,,,,###########################,,,                        '##       
           ' ,,###''''                  '''############,,,                           
         ,,##''                                '''############,,,,        ,,,,,,###''
      ,#''                                            '''#######################'''  
     '                                                          ''''####''''         
             ,#######,   #######,   ,#######,      ##                                
            ,#'     '#,  ##    ##  ,#'     '#,    #''#        ######   ,####,        
            ##       ##  ##   ,#'  ##            #'  '#       #        #'  '#        
            ##       ##  #######   ##           ,######,      #####,   #    #        
            '#,     ,#'  ##    ##  '#,     ,#' ,#      #,         ##   #,  ,#        
             '#######'   ##     ##  '#######'  #'      '#     #####' # '####'        



                  #######################################################
                  #                        -***-                        #
                  #          Department of theory and spectroscopy      #
                  #    Directorship and core code : Frank Neese         #
                  #        Max Planck Institute fuer Kohlenforschung    #
                  #                Kaiser Wilhelm Platz 1               #
                  #                 D-45470 Muelheim/Ruhr               #
                  #                      Germany                        #
                  #                                                     #
                  #                  All rights reserved                #
                  #                        -***-                        #
                  #######################################################


                         Program Version 5.0.3 -  RELEASE  -


 With contributions from (in alphabetic order):
   Daniel Aravena         : Magnetic Suceptibility
   Michael Atanasov       : Ab Initio Ligand Field Theory (pilot matlab implementation)
   Alexander A. Auer      : GIAO ZORA, VPT2 properties, NMR spectrum
   Ute Becker             : Parallelization
   Giovanni Bistoni       : ED, misc. LED, open-shell LED, HFLD
   Martin Brehm           : Molecular dynamics
   Dmytro Bykov           : SCF Hessian
   Vijay G. Chilkuri      : MRCI spin determinant printing, contributions to CSF-ICE
   Dipayan Datta          : RHF DLPNO-CCSD density
   Achintya Kumar Dutta   : EOM-CC, STEOM-CC
   Dmitry Ganyushin       : Spin-Orbit,Spin-Spin,Magnetic field MRCI
   Miquel Garcia          : C-PCM and meta-GGA Hessian, CC/C-PCM, Gaussian charge scheme
   Yang Guo               : DLPNO-NEVPT2, F12-NEVPT2, CIM, IAO-localization
   Andreas Hansen         : Spin unrestricted coupled pair/coupled cluster methods
   Benjamin Helmich-Paris : MC-RPA, TRAH-SCF, COSX integrals
   Lee Huntington         : MR-EOM, pCC
   Robert Izsak           : Overlap fitted RIJCOSX, COSX-SCS-MP3, EOM
   Marcus Kettner         : VPT2
   Christian Kollmar      : KDIIS, OOCD, Brueckner-CCSD(T), CCSD density, CASPT2, CASPT2-K
   Simone Kossmann        : Meta GGA functionals, TD-DFT gradient, OOMP2, MP2 Hessian
   Martin Krupicka        : Initial AUTO-CI
   Lucas Lang             : DCDCAS
   Marvin Lechner         : AUTO-CI (C++ implementation), FIC-MRCC
   Dagmar Lenk            : GEPOL surface, SMD
   Dimitrios Liakos       : Extrapolation schemes; Compound Job, initial MDCI parallelization
   Dimitrios Manganas     : Further ROCIS development; embedding schemes
   Dimitrios Pantazis     : SARC Basis sets
   Anastasios Papadopoulos: AUTO-CI, single reference methods and gradients
   Taras Petrenko         : DFT Hessian,TD-DFT gradient, ASA, ECA, R-Raman, ABS, FL, XAS/XES, NRVS
   Peter Pinski           : DLPNO-MP2, DLPNO-MP2 Gradient
   Christoph Reimann      : Effective Core Potentials
   Marius Retegan         : Local ZFS, SOC
   Christoph Riplinger    : Optimizer, TS searches, QM/MM, DLPNO-CCSD(T), (RO)-DLPNO pert. Triples
   Tobias Risthaus        : Range-separated hybrids, TD-DFT gradient, RPA, STAB
   Michael Roemelt        : Original ROCIS implementation
   Masaaki Saitow         : Open-shell DLPNO-CCSD energy and density
   Barbara Sandhoefer     : DKH picture change effects
   Avijit Sen             : IP-ROCIS
   Kantharuban Sivalingam : CASSCF convergence, NEVPT2, FIC-MRCI
   Bernardo de Souza      : ESD, SOC TD-DFT
   Georgi Stoychev        : AutoAux, RI-MP2 NMR, DLPNO-MP2 response
   Willem Van den Heuvel  : Paramagnetic NMR
   Boris Wezisla          : Elementary symmetry handling
   Frank Wennmohs         : Technical directorship


 We gratefully acknowledge several colleagues who have allowed us to
 interface, adapt or use parts of their codes:
   Stefan Grimme, W. Hujo, H. Kruse, P. Pracht,  : VdW corrections, initial TS optimization,
                  C. Bannwarth, S. Ehlert          DFT functionals, gCP, sTDA/sTD-DF
   Ed Valeev, F. Pavosevic, A. Kumar             : LibInt (2-el integral package), F12 methods
   Garnet Chan, S. Sharma, J. Yang, R. Olivares  : DMRG
   Ulf Ekstrom                                   : XCFun DFT Library
   Mihaly Kallay                                 : mrcc  (arbitrary order and MRCC methods)
   Jiri Pittner, Ondrej Demel                    : Mk-CCSD
   Frank Weinhold                                : gennbo (NPA and NBO analysis)
   Christopher J. Cramer and Donald G. Truhlar   : smd solvation model
   Lars Goerigk                                  : TD-DFT with DH, B97 family of functionals
   V. Asgeirsson, H. Jonsson                     : NEB implementation
   FAccTs GmbH                                   : IRC, NEB, NEB-TS, DLPNO-Multilevel, CI-OPT
                                                   MM, QMMM, 2- and 3-layer-ONIOM, Crystal-QMMM,
                                                   LR-CPCM, SF, NACMEs, symmetry and pop. for TD-DFT,
                                                   nearIR, NL-DFT gradient (VV10), updates on ESD,
                                                   ML-optimized integration grids
   S Lehtola, MJT Oliveira, MAL Marques          : LibXC Library
   Liviu Ungur et al                             : ANISO software


 Your calculation uses the libint2 library for the computation of 2-el integrals
 For citations please refer to: http://libint.valeyev.net

 Your ORCA version has been built with support for libXC version: 5.1.0
 For citations please refer to: https://tddft.org/programs/libxc/

 This ORCA versions uses:
   CBLAS   interface :  Fast vector & matrix operations
   LAPACKE interface :  Fast linear algebra routines
   SCALAPACK package :  Parallel linear algebra routines
   Shared memory     :  Shared parallel matrices
   BLAS/LAPACK       :  OpenBLAS 0.3.15  USE64BITINT DYNAMIC_ARCH NO_AFFINITY Haswell SINGLE_THREADED
        Core in use  :  Haswell
   Copyright (c) 2011-2014, The OpenBLAS Project




***************************************
The coordinates will be read from file: 6e.xyz
***************************************


Your calculation utilizes the geometrical counterpoise correction gCP
Please cite in your paper:
H.Kruse, S. Grimme J.Chem.Phys., 136, (2012), 154101 
   

Your calculation utilizes the atom-pairwise dispersion correction
with the Becke-Johnson damping scheme (D3BJ)
Cite in your paper:
S.Grimme, S.Ehrlich, L.Goerigk, J Comput Chem, (2011), 32, 1456–1465 
S.Grimme, J.Antony, S.Ehrlich and H.Krieg, J.Chem.Phys., 132, (2010), 154104 
   

Your calculation employs the composite approach PBEh-3c.
Please cite in your paper:
S. Grimme, J. G. Brandenburg, C. Bannwarth, A. Hansen J.Chem.Phys., 143, (2015), 054107 
   

================================================================================

----- Orbital basis set information -----
Your calculation utilizes the basis: def2-mSVP

----- AuxJ basis set information -----
Your calculation utilizes the auxiliary basis: def2/J
   F. Weigend, Phys. Chem. Chem. Phys. 8, 1057 (2006).

================================================================================
                                        WARNINGS
                       Please study these warnings very carefully!
================================================================================


WARNING: your system is open-shell and RHF/RKS was chosen
  ===> : WILL SWITCH to UHF/UKS


INFO   : the flag for use of the SHARK integral package has been found!

================================================================================
                                       INPUT FILE
================================================================================
NAME = pbeh-3c.inp
|  1> ! PBEh-3c def2/J TightSCF DefGrid3
|  2> 
|  3> %maxcore 60000
|  4> 
|  5> %pal
|  6> nprocs 4
|  7> end
|  8> 
|  9> *xyzfile 1 2 6e.xyz
| 10> 
| 11>                          ****END OF INPUT****
================================================================================

                       ****************************
                       * Single Point Calculation *
                       ****************************

---------------------------------
CARTESIAN COORDINATES (ANGSTROEM)
---------------------------------
  C     -2.543265   -0.526590    0.493556
  C     -1.085826   -0.921626    0.379195
  O     -0.705382   -1.985403    0.754008
  C     -0.109103    0.093580   -0.250582
  C      1.343620   -0.088586    0.122127
  C      2.168649    0.984561   -0.574818
  H     -2.822007   -0.009771   -0.426086
  H     -2.589952    0.177872    1.331347
  H     -3.162914   -1.398349    0.687280
  H     -0.515621    1.076972    0.005163
  H     -0.299042   -0.073049   -1.323162
  H      1.679550   -1.087397   -0.167331
  H      1.462887   -0.006460    1.205420
  H      2.094804    0.908413   -1.661153
  H      3.218691    0.865418   -0.299039
  H      1.864911    1.990414   -0.275925

----------------------------
CARTESIAN COORDINATES (A.U.)
----------------------------
  NO LB      ZA    FRAG     MASS         X           Y           Z
   0 C     6.0000    0    12.011   -4.806074   -0.995111    0.932685
   1 C     6.0000    0    12.011   -2.051914   -1.741620    0.716575
   2 O     8.0000    0    15.999   -1.332980   -3.751868    1.424868
   3 C     6.0000    0    12.011   -0.206175    0.176841   -0.473531
   4 C     6.0000    0    12.011    2.539074   -0.167403    0.230787
   5 C     6.0000    0    12.011    4.098153    1.860551   -1.086248
   6 H     1.0000    0     1.008   -5.332821   -0.018465   -0.805187
   7 H     1.0000    0     1.008   -4.894299    0.336129    2.515881
   8 H     1.0000    0     1.008   -5.977042   -2.642496    1.298771
   9 H     1.0000    0     1.008   -0.974382    2.035182    0.009756
  10 H     1.0000    0     1.008   -0.565107   -0.138042   -2.500413
  11 H     1.0000    0     1.008    3.173889   -2.054882   -0.316210
  12 H     1.0000    0     1.008    2.764457   -0.012208    2.277914
  13 H     1.0000    0     1.008    3.958605    1.716653   -3.139124
  14 H     1.0000    0     1.008    6.082444    1.635403   -0.565102
  15 H     1.0000    0     1.008    3.524171    3.761338   -0.521422

--------------------------------
INTERNAL COORDINATES (ANGSTROEM)
--------------------------------
 C      0   0   0     0.000000000000     0.00000000     0.00000000
 C      1   0   0     1.514350753254     0.00000000     0.00000000
 O      2   1   0     1.190312638303   121.12828951     0.00000000
 C      2   1   3     1.543129919685   117.92819132   179.46698562
 C      4   2   1     1.510794980477   115.37958436   157.50034147
 C      5   4   2     1.522514477885   108.85294675   180.05827309
 H      1   2   3     1.091119009571   107.80471927   221.30040245
 H      1   2   3     1.095600514878   105.45553262   104.72450380
 H      1   2   3     1.086948962648   110.66475646   344.85318095
 H      4   2   1     1.094404326683   105.11004389    30.93801415
 H      4   2   1     1.101938845009   100.87467756   279.37239635
 H      5   4   2     1.092820739240   109.90376681    58.44679951
 H      5   4   2     1.092928570168   109.90085597   300.55773997
 H      6   5   4     1.091501433101   111.70067838   298.65573035
 H      6   5   4     1.092170486481   109.17807692   179.29974037
 H      6   5   4     1.092398230246   111.90642617    60.56839250

---------------------------
INTERNAL COORDINATES (A.U.)
---------------------------
 C      0   0   0     0.000000000000     0.00000000     0.00000000
 C      1   0   0     2.861708194346     0.00000000     0.00000000
 O      2   1   0     2.249364900137   121.12828951     0.00000000
 C      2   1   3     2.916092937264   117.92819132   179.46698562
 C      4   2   1     2.854988757604   115.37958436   157.50034147
 C      5   4   2     2.877135398133   108.85294675   180.05827309
 H      1   2   3     2.061916107605   107.80471927   221.30040245
 H      1   2   3     2.070384925303   105.45553262   104.72450380
 H      1   2   3     2.054035860954   110.66475646   344.85318095
 H      4   2   1     2.068124457210   105.11004389    30.93801415
 H      4   2   1     2.082362633396   100.87467756   279.37239635
 H      5   4   2     2.065131910632   109.90376681    58.44679951
 H      5   4   2     2.065335681557   109.90085597   300.55773997
 H      6   5   4     2.062638783343   111.70067838   298.65573035
 H      6   5   4     2.063903111001   109.17807692   179.29974037
 H      6   5   4     2.064333484345   111.90642617    60.56839250

---------------------
BASIS SET INFORMATION
---------------------
There are 3 groups of distinct atoms

 Group   1 Type C   : 8s4p1d contracted to 4s2p1d pattern {5111/31/1}
 Group   2 Type O   : 8s4p1d contracted to 4s2p1d pattern {5111/31/1}
 Group   3 Type H   : 4s contracted to 2s pattern {31}

Atom   0C    basis set group =>   1
Atom   1C    basis set group =>   1
Atom   2O    basis set group =>   2
Atom   3C    basis set group =>   1
Atom   4C    basis set group =>   1
Atom   5C    basis set group =>   1
Atom   6H    basis set group =>   3
Atom   7H    basis set group =>   3
Atom   8H    basis set group =>   3
Atom   9H    basis set group =>   3
Atom  10H    basis set group =>   3
Atom  11H    basis set group =>   3
Atom  12H    basis set group =>   3
Atom  13H    basis set group =>   3
Atom  14H    basis set group =>   3
Atom  15H    basis set group =>   3
---------------------------------
AUXILIARY/J BASIS SET INFORMATION
---------------------------------
There are 3 groups of distinct atoms

 Group   1 Type C   : 12s5p4d2f1g contracted to 6s4p3d1f1g pattern {711111/2111/211/2/1}
 Group   2 Type O   : 12s5p4d2f1g contracted to 6s4p3d1f1g pattern {711111/2111/211/2/1}
 Group   3 Type H   : 5s2p1d contracted to 3s1p1d pattern {311/2/1}

Atom   0C    basis set group =>   1
Atom   1C    basis set group =>   1
Atom   2O    basis set group =>   2
Atom   3C    basis set group =>   1
Atom   4C    basis set group =>   1
Atom   5C    basis set group =>   1
Atom   6H    basis set group =>   3
Atom   7H    basis set group =>   3
Atom   8H    basis set group =>   3
Atom   9H    basis set group =>   3
Atom  10H    basis set group =>   3
Atom  11H    basis set group =>   3
Atom  12H    basis set group =>   3
Atom  13H    basis set group =>   3
Atom  14H    basis set group =>   3
Atom  15H    basis set group =>   3


           ************************************************************
           *        Program running with 4 parallel MPI-processes     *
           *              working on a common directory               *
           ************************************************************
------------------------------------------------------------------------------
                           ORCA GTO INTEGRAL CALCULATION
                           -- RI-GTO INTEGRALS CHOSEN --
------------------------------------------------------------------------------
------------------------------------------------------------------------------
                   ___                                                        
                  /   \      - P O W E R E D   B Y -                         
                 /     \                                                     
                 |  |  |   _    _      __       _____    __    __             
                 |  |  |  | |  | |    /  \     |  _  \  |  |  /  |          
                  \  \/   | |  | |   /    \    | | | |  |  | /  /          
                 / \  \   | |__| |  /  /\  \   | |_| |  |  |/  /          
                |  |  |   |  __  | /  /__\  \  |    /   |      \           
                |  |  |   | |  | | |   __   |  |    \   |  |\   \          
                \     /   | |  | | |  |  |  |  | |\  \  |  | \   \       
                 \___/    |_|  |_| |__|  |__|  |_| \__\ |__|  \__/        
                                                                              
                      - O R C A' S   B I G   F R I E N D -                    
                                      &                                       
                       - I N T E G R A L  F E E D E R -                       
                                                                              
 v1 FN, 2020, v2 2021                                                         
------------------------------------------------------------------------------


Reading SHARK input file pbeh-3c.SHARKINP.tmp ... ok
----------------------
SHARK INTEGRAL PACKAGE
----------------------

Number of atoms                             ...     16
Number of basis functions                   ...    110
Number of shells                            ...     62
Maximum angular momentum                    ...      2
Integral batch strategy                     ... SHARK/LIBINT Hybrid
RI-J (if used) integral strategy            ... SPLIT-RIJ (Revised 2003 algorithm where possible)
Printlevel                                  ...      1
Contraction scheme used                     ... SEGMENTED contraction
Coulomb Range Separation                    ... NOT USED
Exchange Range Separation                   ... NOT USED
Finite Nucleus Model                        ... NOT USED
Auxiliary Coulomb fitting basis             ... AVAILABLE
   # of basis functions in Aux-J            ...    404
   # of shells in Aux-J                     ...    140
   Maximum angular momentum in Aux-J        ...      4
Auxiliary J/K fitting basis                 ... NOT available
Auxiliary Correlation fitting basis         ... NOT available
Auxiliary 'external' fitting basis          ... NOT available
Integral threshold                          ...     2.500000e-11
Primitive cut-off                           ...     2.500000e-12
Primitive pair pre-selection threshold      ...     2.500000e-12

Calculating pre-screening integrals         ... done (  0.1 sec) Dimension = 62
Organizing shell pair data                  ... done (  0.3 sec)
Shell pair information
Total number of shell pairs                 ...      1953
Shell pairs after pre-screening             ...      1788
Total number of primitive shell pairs       ...      7129
Primitive shell pairs kept                  ...      4750
          la=0 lb=0:    873 shell pairs
          la=1 lb=0:    508 shell pairs
          la=1 lb=1:     78 shell pairs
          la=2 lb=0:    237 shell pairs
          la=2 lb=1:     72 shell pairs
          la=2 lb=2:     20 shell pairs

Calculating one electron integrals          ... done (  0.0 sec)
Calculating RI/J V-Matrix + Cholesky decomp.... done (  0.8 sec)
Calculating Nuclear repulsion               ... done (  0.1 sec) ENN=    236.640023829366 Eh

SHARK setup successfully completed in   2.7 seconds

Maximum memory used throughout the entire GTOINT-calculation: 10.5 MB


           ************************************************************
           *        Program running with 4 parallel MPI-processes     *
           *              working on a common directory               *
           ************************************************************
-------------------------------------------------------------------------------
                                 ORCA SCF
-------------------------------------------------------------------------------

------------
SCF SETTINGS
------------
Hamiltonian:
 Density Functional     Method          .... DFT(GTOs)
 Exchange Functional    Exchange        .... PBE
   PBE kappa parameter   XKappa         ....  1.024500
   PBE mue parameter    XMuePBE         ....  0.123457
 Correlation Functional Correlation     .... PBE
   PBE beta parameter  CBetaPBE         ....  0.030000
 LDA part of GGA corr.  LDAOpt          .... PW91-LDA
 Gradients option       PostSCFGGA      .... off
 Hybrid DFT is turned on
   Fraction HF Exchange ScalHFX         ....  0.420000
   Scaling of DF-GGA-X  ScalDFX         ....  0.580000
   Scaling of DF-GGA-C  ScalDFC         ....  1.000000
   Scaling of DF-LDA-C  ScalLDAC        ....  1.000000
   Perturbative correction              ....  0.000000
   Density functional embedding theory  .... OFF
 RI-approximation to the Coulomb term is turned on
   Number of AuxJ basis functions       .... 404
   RIJ-ON(X) (HFX calculated with O(N)) .... on
   Number of AuxJ basis functions       .... 404
   RIJ-COSX (HFX calculated with COS-X)).... on


General Settings:
 Integral files         IntName         .... pbeh-3c
 Hartree-Fock type      HFTyp           .... UHF
 Total Charge           Charge          ....    1
 Multiplicity           Mult            ....    2
 Number of Electrons    NEL             ....   47
 Basis Dimension        Dim             ....  110
 Nuclear Repulsion      ENuc            ....    236.6400238294 Eh

Convergence Acceleration:
 DIIS                   CNVDIIS         .... on
   Start iteration      DIISMaxIt       ....    12
   Startup error        DIISStart       ....  0.200000
   # of expansion vecs  DIISMaxEq       ....     5
   Bias factor          DIISBfac        ....   1.050
   Max. coefficient     DIISMaxC        ....  10.000
 Trust-Rad. Augm. Hess. CNVTRAH         .... auto
   Auto Start mean grad. ratio tolernc. ....  1.125000
   Auto Start start iteration           ....    20
   Auto Start num. interpolation iter.  ....    10
   Max. Number of Micro iterations      ....    16
   Max. Number of Macro iterations      .... Maxiter - #DIIS iter
   Number of Davidson start vectors     ....     2
   Converg. threshold I  (grad. norm)   ....   1.000e-05
   Converg. threshold II (energy diff.) ....   1.000e-08
   Grad. Scal. Fac. for Micro threshold ....   0.100
   Minimum threshold for Micro iter.    ....   0.010
   NR start threshold (gradient norm)   ....   0.001
   Initial trust radius                 ....   0.400
   Minimum AH scaling param. (alpha)    ....   1.000
   Maximum AH scaling param. (alpha)    .... 1000.000
   Orbital update algorithm             .... Taylor
   White noise on init. David. guess    .... on
   Maximum white noise                  ....   0.010
   Quad. conv. algorithm                .... NR
   COSX micro iterations for RIJONX calc.... off
 SOSCF                  CNVSOSCF        .... off
 Level Shifting         CNVShift        .... on
   Level shift para.    LevelShift      ....    0.2500
   Turn off err/grad.   ShiftErr        ....    0.0010
 Zerner damping         CNVZerner       .... off
 Static damping         CNVDamp         .... on
   Fraction old density DampFac         ....    0.7000
   Max. Damping (<1)    DampMax         ....    0.9800
   Min. Damping (>=0)   DampMin         ....    0.0000
   Turn off err/grad.   DampErr         ....    0.1000
 Fernandez-Rico         CNVRico         .... off

SCF Procedure:
 Maximum # iterations   MaxIter         ....   125
 SCF integral mode      SCFMode         .... Direct
   Integral package                     .... SHARK and LIBINT hybrid scheme
 Reset frequency        DirectResetFreq ....    20
 Integral Threshold     Thresh          ....  2.500e-11 Eh
 Primitive CutOff       TCut            ....  2.500e-12 Eh

Convergence Tolerance:
 Convergence Check Mode ConvCheckMode   .... Total+1el-Energy
 Convergence forced     ConvForced      .... 0
 Energy Change          TolE            ....  1.000e-08 Eh
 1-El. energy change                    ....  1.000e-05 Eh
 DIIS Error             TolErr          ....  5.000e-07


Diagonalization of the overlap matrix:
Smallest eigenvalue                        ... 4.415e-03
Time for diagonalization                   ...    0.003 sec
Threshold for overlap eigenvalues          ... 1.000e-08
Number of eigenvalues below threshold      ... 0
Time for construction of square roots      ...    0.240 sec
Total time needed                          ...    0.297 sec

--------------------------------
INITIAL GUESS: MINIMAL BASIS EHT
--------------------------------
The minimal basis has 40 functions
EHT matrix was diagonalized
Basis set overlap was calculated now projecting the orbitals
Using GuessMode=FMatrix for the initial guess
C*T matrix was formed
Effective Fockian was calculated
Effective Fockian was diagonalized
Initial density was built
                      ------------------
                      INITIAL GUESS DONE
                      ------------------
-------------------
DFT GRID GENERATION
-------------------

General Integration Accuracy     IntAcc      ... 4.959
Radial Grid Type                 RadialGrid  ... OptM3 with GC (2021)
Angular Grid (max. ang.)         AngularGrid ... 6 (Lebedev-590)
Angular grid pruning method      GridPruning ... 4 (adaptive)
Weight generation scheme         WeightScheme... Becke
Basis function cutoff            BFCut       ... 1.0000e-11
Integration weight cutoff        WCut        ... 1.0000e-14
Angular grids for H and He will be reduced by one unit
Partially contracted basis set               ... off
Rotationally invariant grid construction     ... off

Total number of grid points                  ...   173267
Total number of batches                      ...     2716
Average number of points per batch           ...       63
Average number of grid points per atom       ...    10829
Time for grid setup =    4.465 sec

--------------------
COSX GRID GENERATION
--------------------

GRIDX 1
-------
General Integration Accuracy     IntAcc      ... 4.020
Radial Grid Type                 RadialGrid  ... OptM3 with GC (2021)
Angular Grid (max. ang.)         AngularGrid ... 2 (Lebedev-110)
Angular grid pruning method      GridPruning ... 4 (adaptive)
Weight generation scheme         WeightScheme... Becke
Basis function cutoff            BFCut       ... 1.0000e-11
Integration weight cutoff        WCut        ... 1.0000e-14
Angular grids for H and He will be reduced by one unit
Partially contracted basis set               ... on
Rotationally invariant grid construction     ... off

Total number of grid points                  ...    18461
Total number of batches                      ...      298
Average number of points per batch           ...       61
Average number of grid points per atom       ...     1154
UseSFitting                                  ... on

GRIDX 2
-------
General Integration Accuracy     IntAcc      ... 4.338
Radial Grid Type                 RadialGrid  ... OptM3 with GC (2021)
Angular Grid (max. ang.)         AngularGrid ... 3 (Lebedev-194)
Angular grid pruning method      GridPruning ... 4 (adaptive)
Weight generation scheme         WeightScheme... Becke
Basis function cutoff            BFCut       ... 1.0000e-11
Integration weight cutoff        WCut        ... 1.0000e-14
Angular grids for H and He will be reduced by one unit
Partially contracted basis set               ... on
Rotationally invariant grid construction     ... off

Total number of grid points                  ...    40517
Total number of batches                      ...      641
Average number of points per batch           ...       63
Average number of grid points per atom       ...     2532
UseSFitting                                  ... on

GRIDX 3
-------
General Integration Accuracy     IntAcc      ... 4.871
Radial Grid Type                 RadialGrid  ... OptM3 with GC (2021)
Angular Grid (max. ang.)         AngularGrid ... 4 (Lebedev-302)
Angular grid pruning method      GridPruning ... 4 (adaptive)
Weight generation scheme         WeightScheme... Becke
Basis function cutoff            BFCut       ... 1.0000e-11
Integration weight cutoff        WCut        ... 1.0000e-14
Angular grids for H and He will be reduced by one unit
Partially contracted basis set               ... on
Rotationally invariant grid construction     ... off

Total number of grid points                  ...    79873
Total number of batches                      ...     1256
Average number of points per batch           ...       63
Average number of grid points per atom       ...     4992
UseSFitting                                  ... on

Time for X-Grid setup             =    6.435 sec

--------------
SCF ITERATIONS
--------------
ITER       Energy         Delta-E        Max-DP      RMS-DP      [F,P]     Damp
               ***  Starting incremental Fock matrix formation  ***
  0   -270.1013628970   0.000000000000 0.07167069  0.00238240  0.2070940 0.7000
  1   -270.3775892088  -0.276226311766 0.03926406  0.00144663  0.1438295 0.7000
                               ***Turning on DIIS***
  2   -270.5192499616  -0.141660752800 0.02272184  0.00084375  0.1024588 0.7000
  3   -270.6196166712  -0.100366709669 0.05976794  0.00202902  0.0725313 0.0000
  4   -270.8595552590  -0.239938587782 0.02792731  0.00060483  0.0277760 0.0000
  5   -270.8618663734  -0.002311114412 0.01293780  0.00022999  0.0234619 0.0000
  6   -270.8646814736  -0.002815100219 0.00549519  0.00011335  0.0077951 0.0000
  7   -270.8650892385  -0.000407764884 0.00490744  0.00009709  0.0034895 0.0000
  8   -270.8653075905  -0.000218352029 0.00392891  0.00007688  0.0018710 0.0000
  9   -270.8654226308  -0.000115040207 0.00270649  0.00005662  0.0010270 0.0000
 10   -270.8654782590  -0.000055628296 0.00362974  0.00008308  0.0006346 0.0000
               *** Restarting incremental Fock matrix formation ***
                                   *** Resetting DIIS ***
 11   -270.8655215297  -0.000043270607 0.00049992  0.00001447  0.0002735 0.0000
 12   -270.8655231421  -0.000001612465 0.00033721  0.00000671  0.0003296 0.0000
 13   -270.8655240014  -0.000000859291 0.00022132  0.00000661  0.0001829 0.0000
 14   -270.8655244925  -0.000000491065 0.00018632  0.00000409  0.0000685 0.0000
 15   -270.8655246280  -0.000000135573 0.00009303  0.00000186  0.0000281 0.0000
 16   -270.8655246541  -0.000000026050 0.00002939  0.00000050  0.0000121 0.0000
                 **** Energy Check signals convergence ****

               *****************************************************
               *                     SUCCESS                       *
               *           SCF CONVERGED AFTER  17 CYCLES          *
               *****************************************************

Old exchange energy                            =    -15.686097120 Eh
New exchange energy                            =    -15.686094654 Eh
Exchange energy change after final integration =      0.000002465 Eh
Total energy after final integration           =   -270.865522191 Eh
Final COS-X integration done in                =     4.978 sec

----------------
TOTAL SCF ENERGY
----------------

Total Energy       :         -270.86552219 Eh           -7370.62557 eV

Components:
Nuclear Repulsion  :          236.64002383 Eh            6439.30242 eV
Electronic Energy  :         -507.50554602 Eh          -13809.92799 eV
One Electron Energy:         -824.10449793 Eh          -22425.02345 eV
Two Electron Energy:          316.59895191 Eh            8615.09546 eV
Max COSX asymmetry :            0.00000020 Eh               0.00001 eV

Virial components:
Potential Energy   :         -539.73753510 Eh          -14687.00500 eV
Kinetic Energy     :          268.87201291 Eh            7316.37943 eV
Virial Ratio       :            2.00741434


DFT components:
N(Alpha)           :       24.000001533300 electrons
N(Beta)            :       23.000001563001 electrons
N(Total)           :       47.000003096301 electrons
E(X)               :      -20.829923427725 Eh       
E(C)               :       -2.008483094416 Eh       
E(XC)              :      -22.838406522141 Eh       
DFET-embed. en.    :        0.000000000000 Eh       

---------------
SCF CONVERGENCE
---------------

  Last Energy change         ...   -2.5238e-09  Tolerance :   1.0000e-08
  Last MAX-Density change    ...    0.0000e+00  Tolerance :   1.0000e-07
  Last RMS-Density change    ...    0.0000e+00  Tolerance :   5.0000e-09
  Last DIIS Error            ...    5.1749e-06  Tolerance :   5.0000e-07

             **** THE GBW FILE WAS UPDATED (pbeh-3c.gbw) ****
             **** DENSITY pbeh-3c.scfp WAS UPDATED ****
             **** ENERGY FILE WAS UPDATED (pbeh-3c.en.tmp) ****
----------------------
UHF SPIN CONTAMINATION
----------------------

Warning: in a DFT calculation there is little theoretical justification to 
         calculate <S**2> as in Hartree-Fock theory. We will do it anyways
         but you should keep in mind that the values have only limited relevance

Expectation value of <S**2>     :     0.759899
Ideal value S*(S+1) for S=0.5   :     0.750000
Deviation                       :     0.009899

             **** THE GBW FILE WAS UPDATED (pbeh-3c.gbw) ****
             **** DENSITY pbeh-3c.scfp WAS UPDATED ****
----------------
ORBITAL ENERGIES
----------------
                 SPIN UP ORBITALS
  NO   OCC          E(Eh)            E(eV) 
   0   1.0000     -19.870021      -540.6908 
   1   1.0000     -10.824200      -294.5414 
   2   1.0000     -10.690066      -290.8915 
   3   1.0000     -10.685189      -290.7588 
   4   1.0000     -10.619728      -288.9775 
   5   1.0000     -10.577327      -287.8237 
   6   1.0000      -1.522236       -41.4221 
   7   1.0000      -1.127632       -30.6844 
   8   1.0000      -1.071533       -29.1579 
   9   1.0000      -0.983412       -26.7600 
  10   1.0000      -0.884727       -24.0746 
  11   1.0000      -0.853512       -23.2252 
  12   1.0000      -0.833234       -22.6735 
  13   1.0000      -0.798148       -21.7187 
  14   1.0000      -0.774293       -21.0696 
  15   1.0000      -0.719116       -19.5682 
  16   1.0000      -0.692522       -18.8445 
  17   1.0000      -0.689533       -18.7631 
  18   1.0000      -0.656487       -17.8639 
  19   1.0000      -0.647378       -17.6161 
  20   1.0000      -0.629884       -17.1400 
  21   1.0000      -0.578668       -15.7464 
  22   1.0000      -0.564864       -15.3707 
  23   1.0000      -0.554630       -15.0923 
  24   0.0000      -0.246133        -6.6976 
  25   0.0000      -0.065273        -1.7762 
  26   0.0000      -0.031282        -0.8512 
  27   0.0000      -0.013011        -0.3540 
  28   0.0000      -0.010806        -0.2940 
  29   0.0000       0.007187         0.1956 
  30   0.0000       0.008248         0.2244 
  31   0.0000       0.039386         1.0717 
  32   0.0000       0.043692         1.1889 
  33   0.0000       0.055184         1.5016 
  34   0.0000       0.066208         1.8016 
  35   0.0000       0.084972         2.3122 
  36   0.0000       0.090538         2.4637 
  37   0.0000       0.105846         2.8802 
  38   0.0000       0.118100         3.2137 
  39   0.0000       0.151371         4.1190 
  40   0.0000       0.291094         7.9211 
  41   0.0000       0.295790         8.0488 
  42   0.0000       0.306457         8.3391 
  43   0.0000       0.343645         9.3511 
  44   0.0000       0.353928         9.6309 
  45   0.0000       0.378762        10.3066 
  46   0.0000       0.381437        10.3794 
  47   0.0000       0.420538        11.4434 
  48   0.0000       0.450860        12.2685 
  49   0.0000       0.452248        12.3063 
  50   0.0000       0.474157        12.9025 
  51   0.0000       0.509449        13.8628 
  52   0.0000       0.555606        15.1188 
  53   0.0000       0.602030        16.3821 
  54   0.0000       0.627058        17.0631 
  55   0.0000       0.678818        18.4716 
  56   0.0000       0.742212        20.1966 
  57   0.0000       0.772299        21.0153 
  58   0.0000       0.787942        21.4410 
  59   0.0000       0.811315        22.0770 
  60   0.0000       0.818086        22.2613 
  61   0.0000       0.836374        22.7589 
  62   0.0000       0.853123        23.2147 
  63   0.0000       0.863872        23.5072 
  64   0.0000       0.878850        23.9147 
  65   0.0000       0.905841        24.6492 
  66   0.0000       0.914411        24.8824 
  67   0.0000       0.923166        25.1206 
  68   0.0000       0.941022        25.6065 
  69   0.0000       0.951271        25.8854 
  70   0.0000       1.147374        31.2216 
  71   0.0000       1.183414        32.2023 
  72   0.0000       1.224767        33.3276 
  73   0.0000       1.233362        33.5615 
  74   0.0000       1.335056        36.3287 
  75   0.0000       1.385121        37.6911 
  76   0.0000       1.505579        40.9689 
  77   0.0000       1.531547        41.6755 
  78   0.0000       1.545581        42.0574 
  79   0.0000       1.581995        43.0483 
  80   0.0000       1.620409        44.0936 
  81   0.0000       1.642563        44.6964 
  82   0.0000       1.738193        47.2986 
  83   0.0000       1.767171        48.0872 
  84   0.0000       1.794910        48.8420 
  85   0.0000       1.830612        49.8135 
  86   0.0000       1.854848        50.4730 
  87   0.0000       1.862159        50.6719 
  88   0.0000       1.931855        52.5685 
  89   0.0000       1.976526        53.7840 
  90   0.0000       2.053617        55.8818 
  91   0.0000       2.062995        56.1370 
  92   0.0000       2.089516        56.8586 
  93   0.0000       2.155111        58.6436 
  94   0.0000       2.222354        60.4733 
  95   0.0000       2.253134        61.3109 
  96   0.0000       2.293419        62.4071 
  97   0.0000       2.350156        63.9510 
  98   0.0000       2.386519        64.9405 
  99   0.0000       2.444346        66.5140 
 100   0.0000       2.473412        67.3049 
 101   0.0000       2.638235        71.7900 
 102   0.0000       2.693463        73.2929 
 103   0.0000       2.812019        76.5189 
 104   0.0000      13.301709       361.9579 
 105   0.0000      13.527070       368.0903 
 106   0.0000      13.693096       372.6081 
 107   0.0000      13.737866       373.8263 
 108   0.0000      13.865578       377.3016 
 109   0.0000      25.322660       689.0646 

                 SPIN DOWN ORBITALS
  NO   OCC          E(Eh)            E(eV) 
   0   1.0000     -19.846012      -540.0375 
   1   1.0000     -10.825701      -294.5823 
   2   1.0000     -10.686647      -290.7985 
   3   1.0000     -10.681808      -290.6668 
   4   1.0000     -10.619737      -288.9777 
   5   1.0000     -10.577086      -287.8172 
   6   1.0000      -1.471217       -40.0339 
   7   1.0000      -1.111285       -30.2396 
   8   1.0000      -1.059141       -28.8207 
   9   1.0000      -0.972352       -26.4590 
  10   1.0000      -0.863388       -23.4940 
  11   1.0000      -0.845909       -23.0184 
  12   1.0000      -0.786283       -21.3958 
  13   1.0000      -0.762607       -20.7516 
  14   1.0000      -0.750627       -20.4256 
  15   1.0000      -0.712756       -19.3951 
  16   1.0000      -0.683667       -18.6035 
  17   1.0000      -0.680313       -18.5123 
  18   1.0000      -0.652874       -17.7656 
  19   1.0000      -0.628403       -17.0997 
  20   1.0000      -0.582634       -15.8543 
  21   1.0000      -0.565571       -15.3900 
  22   1.0000      -0.554759       -15.0958 
  23   0.0000      -0.389311       -10.5937 
  24   0.0000      -0.241115        -6.5611 
  25   0.0000      -0.062417        -1.6985 
  26   0.0000      -0.027638        -0.7521 
  27   0.0000      -0.009959        -0.2710 
  28   0.0000      -0.005734        -0.1560 
  29   0.0000       0.009709         0.2642 
  30   0.0000       0.011573         0.3149 
  31   0.0000       0.042798         1.1646 
  32   0.0000       0.047544         1.2937 
  33   0.0000       0.059193         1.6107 
  34   0.0000       0.068607         1.8669 
  35   0.0000       0.086265         2.3474 
  36   0.0000       0.092778         2.5246 
  37   0.0000       0.108383         2.9492 
  38   0.0000       0.127900         3.4803 
  39   0.0000       0.159046         4.3279 
  40   0.0000       0.291687         7.9372 
  41   0.0000       0.297791         8.1033 
  42   0.0000       0.315361         8.5814 
  43   0.0000       0.345912         9.4127 
  44   0.0000       0.369080        10.0432 
  45   0.0000       0.382279        10.4023 
  46   0.0000       0.392030        10.6677 
  47   0.0000       0.423395        11.5212 
  48   0.0000       0.451383        12.2827 
  49   0.0000       0.460848        12.5403 
  50   0.0000       0.478917        13.0320 
  51   0.0000       0.515643        14.0314 
  52   0.0000       0.558056        15.1855 
  53   0.0000       0.604129        16.4392 
  54   0.0000       0.631509        17.1842 
  55   0.0000       0.684942        18.6382 
  56   0.0000       0.746853        20.3229 
  57   0.0000       0.778855        21.1937 
  58   0.0000       0.791509        21.5380 
  59   0.0000       0.815820        22.1996 
  60   0.0000       0.823270        22.4023 
  61   0.0000       0.840203        22.8631 
  62   0.0000       0.857313        23.3287 
  63   0.0000       0.867397        23.6031 
  64   0.0000       0.883730        24.0475 
  65   0.0000       0.906890        24.6777 
  66   0.0000       0.915714        24.9179 
  67   0.0000       0.935064        25.4444 
  68   0.0000       0.944566        25.7030 
  69   0.0000       0.994975        27.0746 
  70   0.0000       1.150318        31.3017 
  71   0.0000       1.189651        32.3720 
  72   0.0000       1.228032        33.4164 
  73   0.0000       1.237411        33.6717 
  74   0.0000       1.340538        36.4779 
  75   0.0000       1.389574        37.8122 
  76   0.0000       1.529721        41.6258 
  77   0.0000       1.560596        42.4660 
  78   0.0000       1.573057        42.8051 
  79   0.0000       1.606545        43.7163 
  80   0.0000       1.630168        44.3591 
  81   0.0000       1.653179        44.9853 
  82   0.0000       1.744605        47.4731 
  83   0.0000       1.778251        48.3887 
  84   0.0000       1.799645        48.9708 
  85   0.0000       1.846524        50.2465 
  86   0.0000       1.857708        50.5508 
  87   0.0000       1.869373        50.8682 
  88   0.0000       1.937693        52.7273 
  89   0.0000       1.983997        53.9873 
  90   0.0000       2.058643        56.0185 
  91   0.0000       2.081459        56.6394 
  92   0.0000       2.092410        56.9374 
  93   0.0000       2.161170        58.8084 
  94   0.0000       2.224641        60.5356 
  95   0.0000       2.254978        61.3611 
  96   0.0000       2.295611        62.4667 
  97   0.0000       2.355421        64.0943 
  98   0.0000       2.392242        65.0962 
  99   0.0000       2.448775        66.6346 
 100   0.0000       2.478279        67.4374 
 101   0.0000       2.647397        72.0393 
 102   0.0000       2.705726        73.6265 
 103   0.0000       2.830104        77.0111 
 104   0.0000      13.303577       362.0087 
 105   0.0000      13.528396       368.1264 
 106   0.0000      13.695584       372.6758 
 107   0.0000      13.738738       373.8501 
 108   0.0000      13.866866       377.3366 
 109   0.0000      25.354004       689.9175 

                    ********************************
                    * MULLIKEN POPULATION ANALYSIS *
                    ********************************

--------------------------------------------
MULLIKEN ATOMIC CHARGES AND SPIN POPULATIONS
--------------------------------------------
   0 C :   -0.717434    0.149533
   1 C :    0.407907   -0.101809
   2 O :    0.012514    0.774162
   3 C :   -0.536734    0.172543
   4 C :   -0.451055    0.003458
   5 C :   -0.652422    0.006684
   6 H :    0.318937   -0.000710
   7 H :    0.330543   -0.004167
   8 H :    0.334241   -0.003430
   9 H :    0.316167   -0.000905
  10 H :    0.334698   -0.002680
  11 H :    0.267797   -0.000521
  12 H :    0.268791    0.001400
  13 H :    0.242606   -0.000413
  14 H :    0.282151    0.006387
  15 H :    0.241292    0.000468
Sum of atomic charges         :    1.0000000
Sum of atomic spin populations:    1.0000000

-----------------------------------------------------
MULLIKEN REDUCED ORBITAL CHARGES AND SPIN POPULATIONS
-----------------------------------------------------
CHARGE
  0 C s       :     3.475557  s :     3.475557
      pz      :     1.195259  p :     3.208191
      px      :     0.807329
      py      :     1.205604
      dz2     :     0.007536  d :     0.033686
      dxz     :     0.001881
      dyz     :     0.009044
      dx2y2   :     0.007879
      dxy     :     0.007346
  1 C s       :     3.185100  s :     3.185100
      pz      :     0.617341  p :     2.314586
      px      :     0.901609
      py      :     0.795636
      dz2     :     0.011210  d :     0.092407
      dxz     :     0.010317
      dyz     :     0.019731
      dx2y2   :     0.027293
      dxy     :     0.023857
  2 O s       :     3.820545  s :     3.820545
      pz      :     1.484645  p :     4.132269
      px      :     1.238503
      py      :     1.409121
      dz2     :     0.004712  d :     0.034673
      dxz     :     0.002405
      dyz     :     0.009667
      dx2y2   :     0.009112
      dxy     :     0.008776
  3 C s       :     3.414640  s :     3.414640
      pz      :     1.113130  p :     3.078565
      px      :     0.949715
      py      :     1.015720
      dz2     :     0.009823  d :     0.043528
      dxz     :     0.008375
      dyz     :     0.004464
      dx2y2   :     0.006727
      dxy     :     0.014139
  4 C s       :     3.344582  s :     3.344582
      pz      :     1.123159  p :     3.062499
      px      :     0.830682
      py      :     1.108658
      dz2     :     0.014373  d :     0.043974
      dxz     :     0.004828
      dyz     :     0.004636
      dx2y2   :     0.013589
      dxy     :     0.006549
  5 C s       :     3.400104  s :     3.400104
      pz      :     1.091700  p :     3.216087
      px      :     1.107782
      py      :     1.016604
      dz2     :     0.012313  d :     0.036231
      dxz     :     0.003509
      dyz     :     0.004474
      dx2y2   :     0.010280
      dxy     :     0.005656
  6 H s       :     0.681063  s :     0.681063
  7 H s       :     0.669457  s :     0.669457
  8 H s       :     0.665759  s :     0.665759
  9 H s       :     0.683833  s :     0.683833
 10 H s       :     0.665302  s :     0.665302
 11 H s       :     0.732203  s :     0.732203
 12 H s       :     0.731209  s :     0.731209
 13 H s       :     0.757394  s :     0.757394
 14 H s       :     0.717849  s :     0.717849
 15 H s       :     0.758708  s :     0.758708

SPIN
  0 C s       :     0.010903  s :     0.010903
      pz      :     0.005059  p :     0.138556
      px      :     0.106871
      py      :     0.026627
      dz2     :     0.000117  d :     0.000074
      dxz     :    -0.000117
      dyz     :    -0.000229
      dx2y2   :     0.000480
      dxy     :    -0.000177
  1 C s       :    -0.031511  s :    -0.031511
      pz      :    -0.039368  p :    -0.087309
      px      :    -0.018935
      py      :    -0.029005
      dz2     :     0.000404  d :     0.017010
      dxz     :     0.000905
      dyz     :     0.001291
      dx2y2   :     0.005038
      dxy     :     0.009372
  2 O s       :     0.020418  s :     0.020418
      pz      :     0.088633  p :     0.756162
      px      :     0.609212
      py      :     0.058316
      dz2     :    -0.000216  d :    -0.002417
      dxz     :    -0.000139
      dyz     :    -0.000495
      dx2y2   :    -0.000532
      dxy     :    -0.001035
  3 C s       :     0.008357  s :     0.008357
      pz      :     0.045119  p :     0.163201
      px      :     0.043939
      py      :     0.074142
      dz2     :    -0.000240  d :     0.000985
      dxz     :     0.000422
      dyz     :     0.000128
      dx2y2   :    -0.000280
      dxy     :     0.000956
  4 C s       :    -0.001393  s :    -0.001393
      pz      :     0.000933  p :     0.004579
      px      :     0.004437
      py      :    -0.000791
      dz2     :     0.000048  d :     0.000271
      dxz     :     0.000187
      dyz     :    -0.000007
      dx2y2   :    -0.000099
      dxy     :     0.000142
  5 C s       :     0.000415  s :     0.000415
      pz      :     0.000122  p :     0.005929
      px      :     0.006312
      py      :    -0.000505
      dz2     :    -0.000001  d :     0.000340
      dxz     :     0.000034
      dyz     :     0.000015
      dx2y2   :     0.000262
      dxy     :     0.000030
  6 H s       :    -0.000710  s :    -0.000710
  7 H s       :    -0.004167  s :    -0.004167
  8 H s       :    -0.003430  s :    -0.003430
  9 H s       :    -0.000905  s :    -0.000905
 10 H s       :    -0.002680  s :    -0.002680
 11 H s       :    -0.000521  s :    -0.000521
 12 H s       :     0.001400  s :     0.001400
 13 H s       :    -0.000413  s :    -0.000413
 14 H s       :     0.006387  s :     0.006387
 15 H s       :     0.000468  s :     0.000468


                     *******************************
                     * LOEWDIN POPULATION ANALYSIS *
                     *******************************

-------------------------------------------
LOEWDIN ATOMIC CHARGES AND SPIN POPULATIONS
-------------------------------------------
   0 C :   -0.318103    0.125440
   1 C :    0.193342   -0.004140
   2 O :    0.202039    0.724833
   3 C :   -0.208605    0.140858
   4 C :   -0.246701    0.004015
   5 C :   -0.352391    0.008202
   6 H :    0.196494   -0.000123
   7 H :    0.207891   -0.002994
   8 H :    0.193153   -0.002914
   9 H :    0.182426    0.000259
  10 H :    0.200387   -0.001198
  11 H :    0.150713   -0.000143
  12 H :    0.151403    0.001367
  13 H :    0.142425   -0.000306
  14 H :    0.163114    0.006161
  15 H :    0.142412    0.000683

----------------------------------------------------
LOEWDIN REDUCED ORBITAL CHARGES AND SPIN POPULATIONS
----------------------------------------------------
CHARGE
  0 C s       :     2.973652  s :     2.973652
      pz      :     1.162830  p :     3.281281
      px      :     0.959333
      py      :     1.159118
      dz2     :     0.013056  d :     0.063169
      dxz     :     0.004139
      dyz     :     0.014040
      dx2y2   :     0.017357
      dxy     :     0.014578
  1 C s       :     2.907365  s :     2.907365
      pz      :     0.679584  p :     2.702110
      px      :     1.043785
      py      :     0.978742
      dz2     :     0.022301  d :     0.197183
      dxz     :     0.020103
      dyz     :     0.041194
      dx2y2   :     0.058051
      dxy     :     0.055534
  2 O s       :     3.534265  s :     3.534265
      pz      :     1.471525  p :     4.200163
      px      :     1.239299
      py      :     1.489340
      dz2     :     0.007234  d :     0.063533
      dxz     :     0.003597
      dyz     :     0.015235
      dx2y2   :     0.018495
      dxy     :     0.018973
  3 C s       :     2.941109  s :     2.941109
      pz      :     1.087976  p :     3.180197
      px      :     1.056653
      py      :     1.035568
      dz2     :     0.018057  d :     0.087299
      dxz     :     0.016770
      dyz     :     0.008035
      dx2y2   :     0.015508
      dxy     :     0.028929
  4 C s       :     2.909943  s :     2.909943
      pz      :     1.125128  p :     3.246565
      px      :     0.994537
      py      :     1.126901
      dz2     :     0.026460  d :     0.090192
      dxz     :     0.011451
      dyz     :     0.008357
      dx2y2   :     0.029120
      dxy     :     0.014805
  5 C s       :     2.953179  s :     2.953179
      pz      :     1.124482  p :     3.331474
      px      :     1.116386
      py      :     1.090606
      dz2     :     0.021531  d :     0.067738
      dxz     :     0.006701
      dyz     :     0.009201
      dx2y2   :     0.018692
      dxy     :     0.011613
  6 H s       :     0.803506  s :     0.803506
  7 H s       :     0.792109  s :     0.792109
  8 H s       :     0.806847  s :     0.806847
  9 H s       :     0.817574  s :     0.817574
 10 H s       :     0.799613  s :     0.799613
 11 H s       :     0.849287  s :     0.849287
 12 H s       :     0.848597  s :     0.848597
 13 H s       :     0.857575  s :     0.857575
 14 H s       :     0.836886  s :     0.836886
 15 H s       :     0.857588  s :     0.857588

SPIN
  0 C s       :     0.010864  s :     0.010864
      pz      :     0.003271  p :     0.116123
      px      :     0.091658
      py      :     0.021194
      dz2     :    -0.000196  d :    -0.001547
      dxz     :    -0.000314
      dyz     :    -0.000342
      dx2y2   :    -0.000075
      dxy     :    -0.000620
  1 C s       :    -0.014728  s :    -0.014728
      pz      :    -0.031033  p :    -0.035514
      px      :     0.014027
      py      :    -0.018509
      dz2     :     0.001432  d :     0.046103
      dxz     :     0.002298
      dyz     :     0.004334
      dx2y2   :     0.013116
      dxy     :     0.024922
  2 O s       :     0.011610  s :     0.011610
      pz      :     0.081687  p :     0.715401
      px      :     0.581621
      py      :     0.052094
      dz2     :    -0.000457  d :    -0.002178
      dxz     :    -0.000136
      dyz     :    -0.000836
      dx2y2   :    -0.000304
      dxy     :    -0.000445
  3 C s       :     0.006725  s :     0.006725
      pz      :     0.035587  p :     0.134650
      px      :     0.037890
      py      :     0.061173
      dz2     :    -0.000520  d :    -0.000517
      dxz     :     0.000259
      dyz     :    -0.000252
      dx2y2   :    -0.000547
      dxy     :     0.000544
  4 C s       :    -0.000590  s :    -0.000590
      pz      :     0.001086  p :     0.003803
      px      :     0.003349
      py      :    -0.000631
      dz2     :     0.000137  d :     0.000801
      dxz     :     0.000428
      dyz     :    -0.000013
      dx2y2   :    -0.000122
      dxy     :     0.000371
  5 C s       :     0.000676  s :     0.000676
      pz      :     0.000314  p :     0.006895
      px      :     0.006540
      py      :     0.000041
      dz2     :    -0.000004  d :     0.000632
      dxz     :     0.000040
      dyz     :     0.000037
      dx2y2   :     0.000532
      dxy     :     0.000028
  6 H s       :    -0.000123  s :    -0.000123
  7 H s       :    -0.002994  s :    -0.002994
  8 H s       :    -0.002914  s :    -0.002914
  9 H s       :     0.000259  s :     0.000259
 10 H s       :    -0.001198  s :    -0.001198
 11 H s       :    -0.000143  s :    -0.000143
 12 H s       :     0.001367  s :     0.001367
 13 H s       :    -0.000306  s :    -0.000306
 14 H s       :     0.006161  s :     0.006161
 15 H s       :     0.000683  s :     0.000683


                      *****************************
                      * MAYER POPULATION ANALYSIS *
                      *****************************

  NA   - Mulliken gross atomic population
  ZA   - Total nuclear charge
  QA   - Mulliken gross atomic charge
  VA   - Mayer's total valence
  BVA  - Mayer's bonded valence
  FA   - Mayer's free valence

  ATOM       NA         ZA         QA         VA         BVA        FA
  0 C      6.7174     6.0000    -0.7174     3.5368     3.5184     0.0184
  1 C      5.5921     6.0000     0.4079     3.6073     3.5955     0.0118
  2 O      7.9875     8.0000     0.0125     2.6138     2.1173     0.4965
  3 C      6.5367     6.0000    -0.5367     3.5112     3.4860     0.0252
  4 C      6.4511     6.0000    -0.4511     3.6726     3.6724     0.0002
  5 C      6.6524     6.0000    -0.6524     3.6901     3.6900     0.0001
  6 H      0.6811     1.0000     0.3189     0.8685     0.8685     0.0000
  7 H      0.6695     1.0000     0.3305     0.8592     0.8592     0.0000
  8 H      0.6658     1.0000     0.3342     0.8646     0.8646     0.0000
  9 H      0.6838     1.0000     0.3162     0.8647     0.8647     0.0000
 10 H      0.6653     1.0000     0.3347     0.8490     0.8489     0.0000
 11 H      0.7322     1.0000     0.2678     0.8859     0.8859     0.0000
 12 H      0.7312     1.0000     0.2688     0.8832     0.8832     0.0000
 13 H      0.7574     1.0000     0.2426     0.9023     0.9023     0.0000
 14 H      0.7178     1.0000     0.2822     0.8921     0.8920     0.0000
 15 H      0.7587     1.0000     0.2413     0.9028     0.9028     0.0000

  Mayer bond orders larger than 0.100000
B(  0-C ,  1-C ) :   0.8824 B(  0-C ,  6-H ) :   0.8627 B(  0-C ,  7-H ) :   0.8440 
B(  0-C ,  8-H ) :   0.8699 B(  1-C ,  2-O ) :   1.8996 B(  1-C ,  3-C ) :   0.8220 
B(  3-C ,  4-C ) :   0.9387 B(  3-C ,  9-H ) :   0.8619 B(  3-C , 10-H ) :   0.8292 
B(  4-C ,  5-C ) :   0.9783 B(  4-C , 11-H ) :   0.8959 B(  4-C , 12-H ) :   0.8969 
B(  5-C , 13-H ) :   0.9142 B(  5-C , 14-H ) :   0.9003 B(  5-C , 15-H ) :   0.9133 


-------
TIMINGS
-------

Total SCF time: 0 days 0 hours 3 min 7 sec 

Total time                  ....     187.350 sec
Sum of individual times     ....     175.186 sec  ( 93.5%)

Fock matrix formation       ....     147.501 sec  ( 78.7%)
  Split-RI-J                ....      13.483 sec  (  9.1% of F)
  Chain of spheres X        ....      31.435 sec  ( 21.3% of F)
  XC integration            ....      47.273 sec  ( 32.0% of F)
    Basis function eval.    ....       4.322 sec  (  9.1% of XC)
    Density eval.           ....       4.307 sec  (  9.1% of XC)
    XC-Functional eval.     ....       2.388 sec  (  5.1% of XC)
    XC-Potential eval.      ....       2.365 sec  (  5.0% of XC)
Diagonalization             ....       2.522 sec  (  1.3%)
Density matrix formation    ....       0.153 sec  (  0.1%)
Population analysis         ....       2.650 sec  (  1.4%)
Initial guess               ....       0.027 sec  (  0.0%)
Orbital Transformation      ....       0.000 sec  (  0.0%)
Orbital Orthonormalization  ....       0.000 sec  (  0.0%)
DIIS solution               ....      11.434 sec  (  6.1%)
Grid generation             ....      10.900 sec  (  5.8%)

Maximum memory used throughout the entire SCF-calculation: 53.4 MB


-------------------------------------------------------------------------------
                          DFT DISPERSION CORRECTION                            
                                                                               
                              DFTD3 V3.1  Rev 1                                
                          USING Becke-Johnson damping                          
-------------------------------------------------------------------------------
The PBEh-3c composite method is recognized
Using three-body term ABC
Active option DFTDOPT                   ...         4   

molecular C6(AA) [au] = 1865.490940 


            DFT-D V3
 parameters
 s6 scaling factor         :     1.0000 
 a1 scaling factor         :     0.4860 
 s8 scaling factor         :     0.0000 
 a2 scaling factor         :     4.5000 
 Damping factor alpha9(ATM):    16.0000 
 ad hoc parameters k1-k3   :    16.0000     1.3333    -4.0000 

 Edisp/kcal,au: -4.199803436922  -0.006692812081 
 E6   /kcal   :  -4.209204277 
 E8   /kcal   :  -0.000000000 
 E6(ABC)      :   0.009400840 
 % E8         :   0.000000000 
 % E6(ABC)    :  -0.223840004 

-------------------------   ----------------
Dispersion correction           -0.006692812
-------------------------   ----------------

------------------   -----------------
gCP correction             0.023174780
------------------   -----------------

-------------------------   --------------------
FINAL SINGLE POINT ENERGY      -270.849040223717
-------------------------   --------------------


                            ***************************************
                            *     ORCA property calculations      *
                            ***************************************

                                    ---------------------
                                    Active property flags
                                    ---------------------
   (+) Dipole Moment


------------------------------------------------------------------------------
                       ORCA ELECTRIC PROPERTIES CALCULATION
------------------------------------------------------------------------------

Dipole Moment Calculation                       ... on
Quadrupole Moment Calculation                   ... off
Polarizability Calculation                      ... off
GBWName                                         ... pbeh-3c.gbw
Electron density                                ... pbeh-3c.scfp
The origin for moment calculation is the CENTER OF MASS  = (-0.286533, -0.763706  0.288900)

-------------
DIPOLE MOMENT
-------------
                                X             Y             Z
Electronic contribution:     -3.72945      -5.83738       2.28647
Nuclear contribution   :      2.28807       6.06108      -2.29178
                        -----------------------------------------
Total Dipole Moment    :     -1.44138       0.22371      -0.00531
                        -----------------------------------------
Magnitude (a.u.)       :      1.45865
Magnitude (Debye)      :      3.70759



--------------------
Rotational spectrum 
--------------------
 
Rotational constants in cm-1:     0.278591     0.059863     0.051614 
Rotational constants in MHz :  8351.940105  1794.658952  1547.350426 

 Dipole components along the rotational axes: 
x,y,z [a.u.] :    -1.178496    -0.859372    -0.016948 
x,y,z [Debye]:    -2.995499    -2.184351    -0.043078 

 

Timings for individual modules:

Sum of individual times         ...      192.168 sec (=   3.203 min)
GTO integral calculation        ...        3.569 sec (=   0.059 min)   1.9 %
SCF iterations                  ...      188.599 sec (=   3.143 min)  98.1 %
                             ****ORCA TERMINATED NORMALLY****
TOTAL RUN TIME: 0 days 0 hours 3 minutes 29 seconds 11 msec
