
                                 *****************
                                 * O   R   C   A *
                                 *****************

                                            #,                                       
                                            ###                                      
                                            ####                                     
                                            #####                                    
                                            ######                                   
                                           ########,                                 
                                     ,,################,,,,,                         
                               ,,#################################,,                 
                          ,,##########################################,,             
                       ,#########################################, ''#####,          
                    ,#############################################,,   '####,        
                  ,##################################################,,,,####,       
                ,###########''''           ''''###############################       
              ,#####''   ,,,,##########,,,,          '''####'''          '####       
            ,##' ,,,,###########################,,,                        '##       
           ' ,,###''''                  '''############,,,                           
         ,,##''                                '''############,,,,        ,,,,,,###''
      ,#''                                            '''#######################'''  
     '                                                          ''''####''''         
             ,#######,   #######,   ,#######,      ##                                
            ,#'     '#,  ##    ##  ,#'     '#,    #''#        ######   ,####,        
            ##       ##  ##   ,#'  ##            #'  '#       #        #'  '#        
            ##       ##  #######   ##           ,######,      #####,   #    #        
            '#,     ,#'  ##    ##  '#,     ,#' ,#      #,         ##   #,  ,#        
             '#######'   ##     ##  '#######'  #'      '#     #####' # '####'        



                  #######################################################
                  #                        -***-                        #
                  #          Department of theory and spectroscopy      #
                  #    Directorship and core code : Frank Neese         #
                  #        Max Planck Institute fuer Kohlenforschung    #
                  #                Kaiser Wilhelm Platz 1               #
                  #                 D-45470 Muelheim/Ruhr               #
                  #                      Germany                        #
                  #                                                     #
                  #                  All rights reserved                #
                  #                        -***-                        #
                  #######################################################


                         Program Version 5.0.3 -  RELEASE  -


 With contributions from (in alphabetic order):
   Daniel Aravena         : Magnetic Suceptibility
   Michael Atanasov       : Ab Initio Ligand Field Theory (pilot matlab implementation)
   Alexander A. Auer      : GIAO ZORA, VPT2 properties, NMR spectrum
   Ute Becker             : Parallelization
   Giovanni Bistoni       : ED, misc. LED, open-shell LED, HFLD
   Martin Brehm           : Molecular dynamics
   Dmytro Bykov           : SCF Hessian
   Vijay G. Chilkuri      : MRCI spin determinant printing, contributions to CSF-ICE
   Dipayan Datta          : RHF DLPNO-CCSD density
   Achintya Kumar Dutta   : EOM-CC, STEOM-CC
   Dmitry Ganyushin       : Spin-Orbit,Spin-Spin,Magnetic field MRCI
   Miquel Garcia          : C-PCM and meta-GGA Hessian, CC/C-PCM, Gaussian charge scheme
   Yang Guo               : DLPNO-NEVPT2, F12-NEVPT2, CIM, IAO-localization
   Andreas Hansen         : Spin unrestricted coupled pair/coupled cluster methods
   Benjamin Helmich-Paris : MC-RPA, TRAH-SCF, COSX integrals
   Lee Huntington         : MR-EOM, pCC
   Robert Izsak           : Overlap fitted RIJCOSX, COSX-SCS-MP3, EOM
   Marcus Kettner         : VPT2
   Christian Kollmar      : KDIIS, OOCD, Brueckner-CCSD(T), CCSD density, CASPT2, CASPT2-K
   Simone Kossmann        : Meta GGA functionals, TD-DFT gradient, OOMP2, MP2 Hessian
   Martin Krupicka        : Initial AUTO-CI
   Lucas Lang             : DCDCAS
   Marvin Lechner         : AUTO-CI (C++ implementation), FIC-MRCC
   Dagmar Lenk            : GEPOL surface, SMD
   Dimitrios Liakos       : Extrapolation schemes; Compound Job, initial MDCI parallelization
   Dimitrios Manganas     : Further ROCIS development; embedding schemes
   Dimitrios Pantazis     : SARC Basis sets
   Anastasios Papadopoulos: AUTO-CI, single reference methods and gradients
   Taras Petrenko         : DFT Hessian,TD-DFT gradient, ASA, ECA, R-Raman, ABS, FL, XAS/XES, NRVS
   Peter Pinski           : DLPNO-MP2, DLPNO-MP2 Gradient
   Christoph Reimann      : Effective Core Potentials
   Marius Retegan         : Local ZFS, SOC
   Christoph Riplinger    : Optimizer, TS searches, QM/MM, DLPNO-CCSD(T), (RO)-DLPNO pert. Triples
   Tobias Risthaus        : Range-separated hybrids, TD-DFT gradient, RPA, STAB
   Michael Roemelt        : Original ROCIS implementation
   Masaaki Saitow         : Open-shell DLPNO-CCSD energy and density
   Barbara Sandhoefer     : DKH picture change effects
   Avijit Sen             : IP-ROCIS
   Kantharuban Sivalingam : CASSCF convergence, NEVPT2, FIC-MRCI
   Bernardo de Souza      : ESD, SOC TD-DFT
   Georgi Stoychev        : AutoAux, RI-MP2 NMR, DLPNO-MP2 response
   Willem Van den Heuvel  : Paramagnetic NMR
   Boris Wezisla          : Elementary symmetry handling
   Frank Wennmohs         : Technical directorship


 We gratefully acknowledge several colleagues who have allowed us to
 interface, adapt or use parts of their codes:
   Stefan Grimme, W. Hujo, H. Kruse, P. Pracht,  : VdW corrections, initial TS optimization,
                  C. Bannwarth, S. Ehlert          DFT functionals, gCP, sTDA/sTD-DF
   Ed Valeev, F. Pavosevic, A. Kumar             : LibInt (2-el integral package), F12 methods
   Garnet Chan, S. Sharma, J. Yang, R. Olivares  : DMRG
   Ulf Ekstrom                                   : XCFun DFT Library
   Mihaly Kallay                                 : mrcc  (arbitrary order and MRCC methods)
   Jiri Pittner, Ondrej Demel                    : Mk-CCSD
   Frank Weinhold                                : gennbo (NPA and NBO analysis)
   Christopher J. Cramer and Donald G. Truhlar   : smd solvation model
   Lars Goerigk                                  : TD-DFT with DH, B97 family of functionals
   V. Asgeirsson, H. Jonsson                     : NEB implementation
   FAccTs GmbH                                   : IRC, NEB, NEB-TS, DLPNO-Multilevel, CI-OPT
                                                   MM, QMMM, 2- and 3-layer-ONIOM, Crystal-QMMM,
                                                   LR-CPCM, SF, NACMEs, symmetry and pop. for TD-DFT,
                                                   nearIR, NL-DFT gradient (VV10), updates on ESD,
                                                   ML-optimized integration grids
   S Lehtola, MJT Oliveira, MAL Marques          : LibXC Library
   Liviu Ungur et al                             : ANISO software


 Your calculation uses the libint2 library for the computation of 2-el integrals
 For citations please refer to: http://libint.valeyev.net

 Your ORCA version has been built with support for libXC version: 5.1.0
 For citations please refer to: https://tddft.org/programs/libxc/

 This ORCA versions uses:
   CBLAS   interface :  Fast vector & matrix operations
   LAPACKE interface :  Fast linear algebra routines
   SCALAPACK package :  Parallel linear algebra routines
   Shared memory     :  Shared parallel matrices
   BLAS/LAPACK       :  OpenBLAS 0.3.15  USE64BITINT DYNAMIC_ARCH NO_AFFINITY Haswell SINGLE_THREADED
        Core in use  :  Haswell
   Copyright (c) 2011-2014, The OpenBLAS Project




***************************************
The coordinates will be read from file: 17a.xyz
***************************************


Your calculation utilizes the geometrical counterpoise correction gCP
Please cite in your paper:
H.Kruse, S. Grimme J.Chem.Phys., 136, (2012), 154101 
   

Your calculation utilizes the atom-pairwise dispersion correction
with the Becke-Johnson damping scheme (D3BJ)
Cite in your paper:
S.Grimme, S.Ehrlich, L.Goerigk, J Comput Chem, (2011), 32, 1456–1465 
S.Grimme, J.Antony, S.Ehrlich and H.Krieg, J.Chem.Phys., 132, (2010), 154104 
   

Your calculation employs the composite approach PBEh-3c.
Please cite in your paper:
S. Grimme, J. G. Brandenburg, C. Bannwarth, A. Hansen J.Chem.Phys., 143, (2015), 054107 
   

================================================================================

----- Orbital basis set information -----
Your calculation utilizes the basis: def2-mSVP

----- AuxJ basis set information -----
Your calculation utilizes the auxiliary basis: def2/J
   F. Weigend, Phys. Chem. Chem. Phys. 8, 1057 (2006).

================================================================================
                                        WARNINGS
                       Please study these warnings very carefully!
================================================================================


INFO   : the flag for use of the SHARK integral package has been found!

================================================================================
                                       INPUT FILE
================================================================================
NAME = pbeh-3c.inp
|  1> ! PBEh-3c def2/J TightSCF DefGrid3
|  2> 
|  3> %maxcore 60000
|  4> 
|  5> %pal
|  6> nprocs 4
|  7> end
|  8> 
|  9> *xyzfile 0 1 17a.xyz
| 10> 
| 11>                          ****END OF INPUT****
================================================================================

                       ****************************
                       * Single Point Calculation *
                       ****************************

---------------------------------
CARTESIAN COORDINATES (ANGSTROEM)
---------------------------------
  C     -1.207557    0.697183    0.000000
  C     -1.207557   -0.697183    0.000000
  C      0.000000   -1.394367    0.000000
  C      1.207557   -0.697183    0.000000
  C      1.207557    0.697183    0.000000
  C      0.000000    1.394367    0.000000
  H     -2.143978    1.237827    0.000000
  H     -2.143978   -1.237827    0.000000
  H      0.000000   -2.475653    0.000000
  H      2.143978   -1.237827    0.000000
  H      2.143978    1.237827    0.000000
  H      0.000000    2.475653    0.000000

----------------------------
CARTESIAN COORDINATES (A.U.)
----------------------------
  NO LB      ZA    FRAG     MASS         X           Y           Z
   0 C     6.0000    0    12.011   -2.281952    1.317486    0.000000
   1 C     6.0000    0    12.011   -2.281952   -1.317486    0.000000
   2 C     6.0000    0    12.011    0.000000   -2.634972    0.000000
   3 C     6.0000    0    12.011    2.281952   -1.317486    0.000000
   4 C     6.0000    0    12.011    2.281952    1.317486    0.000000
   5 C     6.0000    0    12.011    0.000000    2.634972    0.000000
   6 H     1.0000    0     1.008   -4.051532    2.339153    0.000000
   7 H     1.0000    0     1.008   -4.051532   -2.339153    0.000000
   8 H     1.0000    0     1.008    0.000000   -4.678306    0.000000
   9 H     1.0000    0     1.008    4.051532   -2.339153    0.000000
  10 H     1.0000    0     1.008    4.051532    2.339153    0.000000
  11 H     1.0000    0     1.008    0.000000    4.678306    0.000000

--------------------------------
INTERNAL COORDINATES (ANGSTROEM)
--------------------------------
 C      0   0   0     0.000000000000     0.00000000     0.00000000
 C      1   0   0     1.394366800000     0.00000000     0.00000000
 C      2   1   0     1.394366875120   120.00000296     0.00000000
 C      3   2   1     1.394366875120   119.99999407     0.00000000
 C      4   3   2     1.394366800000   120.00000296     0.00000000
 C      1   2   3     1.394366875120   120.00000296     0.00000000
 H      1   2   3     1.081286321047   120.00000242   180.00000000
 H      2   1   3     1.081286321047   120.00000242   180.00000000
 H      3   2   1     1.081286200000   120.00000296   180.00000000
 H      4   3   2     1.081286321047   119.99999462   180.00000000
 H      5   4   3     1.081286321047   120.00000242   180.00000000
 H      6   1   2     1.081286200000   120.00000296   180.00000000

---------------------------
INTERNAL COORDINATES (A.U.)
---------------------------
 C      0   0   0     0.000000000000     0.00000000     0.00000000
 C      1   0   0     2.634971382232     0.00000000     0.00000000
 C      2   1   0     2.634971524189   120.00000296     0.00000000
 C      3   2   1     2.634971524189   119.99999407     0.00000000
 C      4   3   2     2.634971382232   120.00000296     0.00000000
 C      1   2   3     2.634971524189   120.00000296     0.00000000
 H      1   2   3     2.043335019135   120.00000242   180.00000000
 H      2   1   3     2.043335019135   120.00000242   180.00000000
 H      3   2   1     2.043334790388   120.00000296   180.00000000
 H      4   3   2     2.043335019135   119.99999462   180.00000000
 H      5   4   3     2.043335019135   120.00000242   180.00000000
 H      6   1   2     2.043334790388   120.00000296   180.00000000

---------------------
BASIS SET INFORMATION
---------------------
There are 2 groups of distinct atoms

 Group   1 Type C   : 8s4p1d contracted to 4s2p1d pattern {5111/31/1}
 Group   2 Type H   : 4s contracted to 2s pattern {31}

Atom   0C    basis set group =>   1
Atom   1C    basis set group =>   1
Atom   2C    basis set group =>   1
Atom   3C    basis set group =>   1
Atom   4C    basis set group =>   1
Atom   5C    basis set group =>   1
Atom   6H    basis set group =>   2
Atom   7H    basis set group =>   2
Atom   8H    basis set group =>   2
Atom   9H    basis set group =>   2
Atom  10H    basis set group =>   2
Atom  11H    basis set group =>   2
---------------------------------
AUXILIARY/J BASIS SET INFORMATION
---------------------------------
There are 2 groups of distinct atoms

 Group   1 Type C   : 12s5p4d2f1g contracted to 6s4p3d1f1g pattern {711111/2111/211/2/1}
 Group   2 Type H   : 5s2p1d contracted to 3s1p1d pattern {311/2/1}

Atom   0C    basis set group =>   1
Atom   1C    basis set group =>   1
Atom   2C    basis set group =>   1
Atom   3C    basis set group =>   1
Atom   4C    basis set group =>   1
Atom   5C    basis set group =>   1
Atom   6H    basis set group =>   2
Atom   7H    basis set group =>   2
Atom   8H    basis set group =>   2
Atom   9H    basis set group =>   2
Atom  10H    basis set group =>   2
Atom  11H    basis set group =>   2


           ************************************************************
           *        Program running with 4 parallel MPI-processes     *
           *              working on a common directory               *
           ************************************************************
------------------------------------------------------------------------------
                           ORCA GTO INTEGRAL CALCULATION
                           -- RI-GTO INTEGRALS CHOSEN --
------------------------------------------------------------------------------
------------------------------------------------------------------------------
                   ___                                                        
                  /   \      - P O W E R E D   B Y -                         
                 /     \                                                     
                 |  |  |   _    _      __       _____    __    __             
                 |  |  |  | |  | |    /  \     |  _  \  |  |  /  |          
                  \  \/   | |  | |   /    \    | | | |  |  | /  /          
                 / \  \   | |__| |  /  /\  \   | |_| |  |  |/  /          
                |  |  |   |  __  | /  /__\  \  |    /   |      \           
                |  |  |   | |  | | |   __   |  |    \   |  |\   \          
                \     /   | |  | | |  |  |  |  | |\  \  |  | \   \       
                 \___/    |_|  |_| |__|  |__|  |_| \__\ |__|  \__/        
                                                                              
                      - O R C A' S   B I G   F R I E N D -                    
                                      &                                       
                       - I N T E G R A L  F E E D E R -                       
                                                                              
 v1 FN, 2020, v2 2021                                                         
------------------------------------------------------------------------------


Reading SHARK input file pbeh-3c.SHARKINP.tmp ... ok
----------------------
SHARK INTEGRAL PACKAGE
----------------------

Number of atoms                             ...     12
Number of basis functions                   ...    102
Number of shells                            ...     54
Maximum angular momentum                    ...      2
Integral batch strategy                     ... SHARK/LIBINT Hybrid
RI-J (if used) integral strategy            ... SPLIT-RIJ (Revised 2003 algorithm where possible)
Printlevel                                  ...      1
Contraction scheme used                     ... SEGMENTED contraction
Coulomb Range Separation                    ... NOT USED
Exchange Range Separation                   ... NOT USED
Finite Nucleus Model                        ... NOT USED
Auxiliary Coulomb fitting basis             ... AVAILABLE
   # of basis functions in Aux-J            ...    360
   # of shells in Aux-J                     ...    120
   Maximum angular momentum in Aux-J        ...      4
Auxiliary J/K fitting basis                 ... NOT available
Auxiliary Correlation fitting basis         ... NOT available
Auxiliary 'external' fitting basis          ... NOT available
Integral threshold                          ...     2.500000e-11
Primitive cut-off                           ...     2.500000e-12
Primitive pair pre-selection threshold      ...     2.500000e-12

Calculating pre-screening integrals         ... done (  0.1 sec) Dimension = 54
Organizing shell pair data                  ... done (  0.4 sec)
Shell pair information
Total number of shell pairs                 ...      1485
Shell pairs after pre-screening             ...      1428
Total number of primitive shell pairs       ...      5349
Primitive shell pairs kept                  ...      3915
          la=0 lb=0:    609 shell pairs
          la=1 lb=0:    432 shell pairs
          la=1 lb=1:     78 shell pairs
          la=2 lb=0:    216 shell pairs
          la=2 lb=1:     72 shell pairs
          la=2 lb=2:     21 shell pairs

Calculating one electron integrals          ... done (  0.0 sec)
Calculating RI/J V-Matrix + Cholesky decomp.... done (  0.6 sec)
Calculating Nuclear repulsion               ... done (  0.1 sec) ENN=    203.627154899282 Eh

SHARK setup successfully completed in   2.1 seconds

Maximum memory used throughout the entire GTOINT-calculation: 10.2 MB


           ************************************************************
           *        Program running with 4 parallel MPI-processes     *
           *              working on a common directory               *
           ************************************************************
-------------------------------------------------------------------------------
                                 ORCA SCF
-------------------------------------------------------------------------------

------------
SCF SETTINGS
------------
Hamiltonian:
 Density Functional     Method          .... DFT(GTOs)
 Exchange Functional    Exchange        .... PBE
   PBE kappa parameter   XKappa         ....  1.024500
   PBE mue parameter    XMuePBE         ....  0.123457
 Correlation Functional Correlation     .... PBE
   PBE beta parameter  CBetaPBE         ....  0.030000
 LDA part of GGA corr.  LDAOpt          .... PW91-LDA
 Gradients option       PostSCFGGA      .... off
 Hybrid DFT is turned on
   Fraction HF Exchange ScalHFX         ....  0.420000
   Scaling of DF-GGA-X  ScalDFX         ....  0.580000
   Scaling of DF-GGA-C  ScalDFC         ....  1.000000
   Scaling of DF-LDA-C  ScalLDAC        ....  1.000000
   Perturbative correction              ....  0.000000
   Density functional embedding theory  .... OFF
 RI-approximation to the Coulomb term is turned on
   Number of AuxJ basis functions       .... 360
   RIJ-ON(X) (HFX calculated with O(N)) .... on
   Number of AuxJ basis functions       .... 360
   RIJ-COSX (HFX calculated with COS-X)).... on


General Settings:
 Integral files         IntName         .... pbeh-3c
 Hartree-Fock type      HFTyp           .... RHF
 Total Charge           Charge          ....    0
 Multiplicity           Mult            ....    1
 Number of Electrons    NEL             ....   42
 Basis Dimension        Dim             ....  102
 Nuclear Repulsion      ENuc            ....    203.6271548993 Eh

Convergence Acceleration:
 DIIS                   CNVDIIS         .... on
   Start iteration      DIISMaxIt       ....    12
   Startup error        DIISStart       ....  0.200000
   # of expansion vecs  DIISMaxEq       ....     5
   Bias factor          DIISBfac        ....   1.050
   Max. coefficient     DIISMaxC        ....  10.000
 Trust-Rad. Augm. Hess. CNVTRAH         .... auto
   Auto Start mean grad. ratio tolernc. ....  1.125000
   Auto Start start iteration           ....    20
   Auto Start num. interpolation iter.  ....    10
   Max. Number of Micro iterations      ....    16
   Max. Number of Macro iterations      .... Maxiter - #DIIS iter
   Number of Davidson start vectors     ....     2
   Converg. threshold I  (grad. norm)   ....   1.000e-05
   Converg. threshold II (energy diff.) ....   1.000e-08
   Grad. Scal. Fac. for Micro threshold ....   0.100
   Minimum threshold for Micro iter.    ....   0.010
   NR start threshold (gradient norm)   ....   0.001
   Initial trust radius                 ....   0.400
   Minimum AH scaling param. (alpha)    ....   1.000
   Maximum AH scaling param. (alpha)    .... 1000.000
   Orbital update algorithm             .... Taylor
   White noise on init. David. guess    .... on
   Maximum white noise                  ....   0.010
   Quad. conv. algorithm                .... NR
   COSX micro iterations for RIJONX calc.... off
 SOSCF                  CNVSOSCF        .... on
   Start iteration      SOSCFMaxIt      ....   150
   Startup grad/error   SOSCFStart      ....  0.003300
 Level Shifting         CNVShift        .... on
   Level shift para.    LevelShift      ....    0.2500
   Turn off err/grad.   ShiftErr        ....    0.0010
 Zerner damping         CNVZerner       .... off
 Static damping         CNVDamp         .... on
   Fraction old density DampFac         ....    0.7000
   Max. Damping (<1)    DampMax         ....    0.9800
   Min. Damping (>=0)   DampMin         ....    0.0000
   Turn off err/grad.   DampErr         ....    0.1000
 Fernandez-Rico         CNVRico         .... off

SCF Procedure:
 Maximum # iterations   MaxIter         ....   125
 SCF integral mode      SCFMode         .... Direct
   Integral package                     .... SHARK and LIBINT hybrid scheme
 Reset frequency        DirectResetFreq ....    20
 Integral Threshold     Thresh          ....  2.500e-11 Eh
 Primitive CutOff       TCut            ....  2.500e-12 Eh

Convergence Tolerance:
 Convergence Check Mode ConvCheckMode   .... Total+1el-Energy
 Convergence forced     ConvForced      .... 0
 Energy Change          TolE            ....  1.000e-08 Eh
 1-El. energy change                    ....  1.000e-05 Eh
 Orbital Gradient       TolG            ....  1.000e-05
 Orbital Rotation angle TolX            ....  1.000e-05
 DIIS Error             TolErr          ....  5.000e-07


Diagonalization of the overlap matrix:
Smallest eigenvalue                        ... 4.895e-04
Time for diagonalization                   ...    0.002 sec
Threshold for overlap eigenvalues          ... 1.000e-08
Number of eigenvalues below threshold      ... 0
Time for construction of square roots      ...    0.111 sec
Total time needed                          ...    0.205 sec

--------------------------------
INITIAL GUESS: MINIMAL BASIS EHT
--------------------------------
The minimal basis has 36 functions
EHT matrix was diagonalized
Basis set overlap was calculated now projecting the orbitals
Using GuessMode=FMatrix for the initial guess
C*T matrix was formed
Effective Fockian was calculated
Effective Fockian was diagonalized
Initial density was built
                      ------------------
                      INITIAL GUESS DONE
                      ------------------
-------------------
DFT GRID GENERATION
-------------------

General Integration Accuracy     IntAcc      ... 4.959
Radial Grid Type                 RadialGrid  ... OptM3 with GC (2021)
Angular Grid (max. ang.)         AngularGrid ... 6 (Lebedev-590)
Angular grid pruning method      GridPruning ... 4 (adaptive)
Weight generation scheme         WeightScheme... Becke
Basis function cutoff            BFCut       ... 1.0000e-11
Integration weight cutoff        WCut        ... 1.0000e-14
Angular grids for H and He will be reduced by one unit
Partially contracted basis set               ... off
Rotationally invariant grid construction     ... off

Total number of grid points                  ...   138518
Total number of batches                      ...     2172
Average number of points per batch           ...       63
Average number of grid points per atom       ...    11543
Time for grid setup =    2.889 sec

--------------------
COSX GRID GENERATION
--------------------

GRIDX 1
-------
General Integration Accuracy     IntAcc      ... 4.020
Radial Grid Type                 RadialGrid  ... OptM3 with GC (2021)
Angular Grid (max. ang.)         AngularGrid ... 2 (Lebedev-110)
Angular grid pruning method      GridPruning ... 4 (adaptive)
Weight generation scheme         WeightScheme... Becke
Basis function cutoff            BFCut       ... 1.0000e-11
Integration weight cutoff        WCut        ... 1.0000e-14
Angular grids for H and He will be reduced by one unit
Partially contracted basis set               ... on
Rotationally invariant grid construction     ... off

Total number of grid points                  ...    15456
Total number of batches                      ...      246
Average number of points per batch           ...       62
Average number of grid points per atom       ...     1288
UseSFitting                                  ... on

GRIDX 2
-------
General Integration Accuracy     IntAcc      ... 4.338
Radial Grid Type                 RadialGrid  ... OptM3 with GC (2021)
Angular Grid (max. ang.)         AngularGrid ... 3 (Lebedev-194)
Angular grid pruning method      GridPruning ... 4 (adaptive)
Weight generation scheme         WeightScheme... Becke
Basis function cutoff            BFCut       ... 1.0000e-11
Integration weight cutoff        WCut        ... 1.0000e-14
Angular grids for H and He will be reduced by one unit
Partially contracted basis set               ... on
Rotationally invariant grid construction     ... off

Total number of grid points                  ...    34018
Total number of batches                      ...      536
Average number of points per batch           ...       63
Average number of grid points per atom       ...     2835
UseSFitting                                  ... on

GRIDX 3
-------
General Integration Accuracy     IntAcc      ... 4.871
Radial Grid Type                 RadialGrid  ... OptM3 with GC (2021)
Angular Grid (max. ang.)         AngularGrid ... 4 (Lebedev-302)
Angular grid pruning method      GridPruning ... 4 (adaptive)
Weight generation scheme         WeightScheme... Becke
Basis function cutoff            BFCut       ... 1.0000e-11
Integration weight cutoff        WCut        ... 1.0000e-14
Angular grids for H and He will be reduced by one unit
Partially contracted basis set               ... on
Rotationally invariant grid construction     ... off

Total number of grid points                  ...    65276
Total number of batches                      ...     1028
Average number of points per batch           ...       63
Average number of grid points per atom       ...     5440
UseSFitting                                  ... on

Time for X-Grid setup             =    2.994 sec

--------------
SCF ITERATIONS
--------------
ITER       Energy         Delta-E        Max-DP      RMS-DP      [F,P]     Damp
               ***  Starting incremental Fock matrix formation  ***
  0   -231.1714796842   0.000000000000 0.05787346  0.00412078  0.4064292 0.7000
  1   -231.3329602041  -0.161480519895 0.04165998  0.00303752  0.2868010 0.7000
  2   -231.4495847052  -0.116624501108 0.03049697  0.00224489  0.2012827 0.7000
                               ***Turning on DIIS***
  3   -231.5329811158  -0.083396410611 0.02251196  0.00165991  0.1412671 0.7000
  4   -231.5923416967  -0.059360580872 0.05895239  0.00435637  0.0991498 0.0000
  5   -231.7348363827  -0.142494686012 0.00408859  0.00026439  0.0044236 0.0000
                      *** Initiating the SOSCF procedure ***
                           *** Shutting down DIIS ***
                      *** Re-Reading the Fockian *** 
                      *** Removing any level shift *** 
ITER      Energy       Delta-E        Grad      Rot      Max-DP    RMS-DP
  6   -231.73502586  -0.0001894812  0.001621  0.001621  0.001611  0.000073
               *** Restarting incremental Fock matrix formation ***
  7   -231.73503804  -0.0000121794  0.000329  0.000374  0.000412  0.000024
  8   -231.73503945  -0.0000014099  0.000086  0.000128  0.000140  0.000006
  9   -231.73503949  -0.0000000411  0.000038  0.000028  0.000029  0.000002
 10   -231.73503951  -0.0000000175  0.000003  0.000004  0.000005  0.000000
                 **** Energy Check signals convergence ****
              ***Rediagonalizing the Fockian in SOSCF/NRSCF***

               *****************************************************
               *                     SUCCESS                       *
               *           SCF CONVERGED AFTER  11 CYCLES          *
               *****************************************************

Old exchange energy                            =    -13.944651497 Eh
New exchange energy                            =    -13.944635778 Eh
Exchange energy change after final integration =      0.000015719 Eh
Total energy after final integration           =   -231.735023787 Eh
Final COS-X integration done in                =     1.908 sec

----------------
TOTAL SCF ENERGY
----------------

Total Energy       :         -231.73502379 Eh           -6305.83058 eV

Components:
Nuclear Repulsion  :          203.62715490 Eh            5540.97658 eV
Electronic Energy  :         -435.36217869 Eh          -11846.80716 eV
One Electron Energy:         -714.24008684 Eh          -19435.46084 eV
Two Electron Energy:          278.87790815 Eh            7588.65368 eV
Max COSX asymmetry :            0.00000060 Eh               0.00002 eV

Virial components:
Potential Energy   :         -461.54606574 Eh          -12559.30695 eV
Kinetic Energy     :          229.81104196 Eh            6253.47637 eV
Virial Ratio       :            2.00837202


DFT components:
N(Alpha)           :       21.000000500474 electrons
N(Beta)            :       21.000000500474 electrons
N(Total)           :       42.000001000948 electrons
E(X)               :      -18.508611309330 Eh       
E(C)               :       -1.800958196648 Eh       
E(XC)              :      -20.309569505979 Eh       
DFET-embed. en.    :        0.000000000000 Eh       

---------------
SCF CONVERGENCE
---------------

  Last Energy change         ...    5.9307e-09  Tolerance :   1.0000e-08
  Last MAX-Density change    ...    1.1102e-15  Tolerance :   1.0000e-07
  Last RMS-Density change    ...    4.7421e-17  Tolerance :   5.0000e-09
  Last Orbital Gradient      ...    6.7037e-07  Tolerance :   1.0000e-05
  Last Orbital Rotation      ...    8.4218e-07  Tolerance :   1.0000e-05

             **** THE GBW FILE WAS UPDATED (pbeh-3c.gbw) ****
             **** DENSITY pbeh-3c.scfp WAS UPDATED ****
             **** ENERGY FILE WAS UPDATED (pbeh-3c.en.tmp) ****
             **** THE GBW FILE WAS UPDATED (pbeh-3c.gbw) ****
             **** DENSITY pbeh-3c.scfp WAS UPDATED ****
----------------
ORBITAL ENERGIES
----------------

  NO   OCC          E(Eh)            E(eV) 
   0   2.0000     -10.448853      -284.3277 
   1   2.0000     -10.448635      -284.3218 
   2   2.0000     -10.448633      -284.3218 
   3   2.0000     -10.448024      -284.3052 
   4   2.0000     -10.448022      -284.3051 
   5   2.0000     -10.447795      -284.2990 
   6   2.0000      -0.951836       -25.9008 
   7   2.0000      -0.835366       -22.7315 
   8   2.0000      -0.835365       -22.7314 
   9   2.0000      -0.678974       -18.4758 
  10   2.0000      -0.678974       -18.4758 
  11   2.0000      -0.591932       -16.1073 
  12   2.0000      -0.526143       -14.3171 
  13   2.0000      -0.508297       -13.8315 
  14   2.0000      -0.481783       -13.1100 
  15   2.0000      -0.481781       -13.1099 
  16   2.0000      -0.420682       -11.4473 
  17   2.0000      -0.398371       -10.8402 
  18   2.0000      -0.398370       -10.8402 
  19   2.0000      -0.292396        -7.9565 
  20   2.0000      -0.292393        -7.9564 
  21   0.0000       0.019067         0.5188 
  22   0.0000       0.019068         0.5189 
  23   0.0000       0.140909         3.8343 
  24   0.0000       0.195978         5.3328 
  25   0.0000       0.201893         5.4938 
  26   0.0000       0.201897         5.4939 
  27   0.0000       0.223366         6.0781 
  28   0.0000       0.223371         6.0782 
  29   0.0000       0.254165         6.9162 
  30   0.0000       0.326836         8.8936 
  31   0.0000       0.326847         8.8940 
  32   0.0000       0.328342         8.9346 
  33   0.0000       0.328347         8.9348 
  34   0.0000       0.449786        12.2393 
  35   0.0000       0.519842        14.1456 
  36   0.0000       0.565115        15.3776 
  37   0.0000       0.588407        16.0114 
  38   0.0000       0.588413        16.0115 
  39   0.0000       0.588866        16.0239 
  40   0.0000       0.618553        16.8317 
  41   0.0000       0.618554        16.8317 
  42   0.0000       0.634122        17.2553 
  43   0.0000       0.634126        17.2554 
  44   0.0000       0.640312        17.4238 
  45   0.0000       0.656795        17.8723 
  46   0.0000       0.656802        17.8725 
  47   0.0000       0.676071        18.3968 
  48   0.0000       0.732028        19.9195 
  49   0.0000       0.749640        20.3987 
  50   0.0000       0.942858        25.6565 
  51   0.0000       0.942863        25.6566 
  52   0.0000       0.967895        26.3378 
  53   0.0000       0.968891        26.3649 
  54   0.0000       0.968897        26.3650 
  55   0.0000       1.040250        28.3067 
  56   0.0000       1.040251        28.3067 
  57   0.0000       1.044543        28.4235 
  58   0.0000       1.088328        29.6149 
  59   0.0000       1.088339        29.6152 
  60   0.0000       1.096395        29.8344 
  61   0.0000       1.096411        29.8349 
  62   0.0000       1.170121        31.8406 
  63   0.0000       1.301169        35.4066 
  64   0.0000       1.301172        35.4067 
  65   0.0000       1.306240        35.5446 
  66   0.0000       1.441308        39.2200 
  67   0.0000       1.537382        41.8343 
  68   0.0000       1.537382        41.8343 
  69   0.0000       1.567144        42.6441 
  70   0.0000       1.567144        42.6442 
  71   0.0000       1.580742        43.0142 
  72   0.0000       1.815443        49.4007 
  73   0.0000       1.816544        49.4307 
  74   0.0000       1.902279        51.7636 
  75   0.0000       2.060465        56.0681 
  76   0.0000       2.060466        56.0681 
  77   0.0000       2.134977        58.0957 
  78   0.0000       2.134978        58.0957 
  79   0.0000       2.194855        59.7250 
  80   0.0000       2.194860        59.7252 
  81   0.0000       2.203340        59.9559 
  82   0.0000       2.203341        59.9560 
  83   0.0000       2.372071        64.5473 
  84   0.0000       2.372777        64.5666 
  85   0.0000       2.372778        64.5666 
  86   0.0000       2.582457        70.2722 
  87   0.0000       2.582462        70.2724 
  88   0.0000       2.729389        74.2705 
  89   0.0000       2.742149        74.6177 
  90   0.0000       2.742150        74.6177 
  91   0.0000       2.789472        75.9054 
  92   0.0000       2.789473        75.9054 
  93   0.0000       2.839258        77.2601 
  94   0.0000       3.058836        83.2352 
  95   0.0000       3.449940        93.8777 
  96   0.0000      13.215068       359.6003 
  97   0.0000      13.631791       370.9399 
  98   0.0000      13.631797       370.9400 
  99   0.0000      14.103911       383.7869 
 100   0.0000      14.103917       383.7871 
 101   0.0000      14.541747       395.7010 

                    ********************************
                    * MULLIKEN POPULATION ANALYSIS *
                    ********************************

-----------------------
MULLIKEN ATOMIC CHARGES
-----------------------
   0 C :   -0.219907
   1 C :   -0.219908
   2 C :   -0.219920
   3 C :   -0.219908
   4 C :   -0.219907
   5 C :   -0.219920
   6 H :    0.219907
   7 H :    0.219907
   8 H :    0.219920
   9 H :    0.219908
  10 H :    0.219907
  11 H :    0.219920
Sum of atomic charges:    0.0000000

--------------------------------
MULLIKEN REDUCED ORBITAL CHARGES
--------------------------------
  0 C s       :     3.246285  s :     3.246285
      pz      :     0.990921  p :     2.934067
      px      :     1.007752
      py      :     0.935394
      dz2     :     0.003846  d :     0.039556
      dxz     :     0.003393
      dyz     :     0.005683
      dx2y2   :     0.012171
      dxy     :     0.014463
  1 C s       :     3.246285  s :     3.246285
      pz      :     0.990921  p :     2.934067
      px      :     1.007752
      py      :     0.935394
      dz2     :     0.003846  d :     0.039556
      dxz     :     0.003393
      dyz     :     0.005683
      dx2y2   :     0.012171
      dxy     :     0.014463
  2 C s       :     3.246279  s :     3.246279
      pz      :     0.990930  p :     2.934086
      px      :     0.899197
      py      :     1.043959
      dz2     :     0.003846  d :     0.039556
      dxz     :     0.006827
      dyz     :     0.002249
      dx2y2   :     0.015610
      dxy     :     0.011024
  3 C s       :     3.246285  s :     3.246285
      pz      :     0.990921  p :     2.934067
      px      :     1.007753
      py      :     0.935394
      dz2     :     0.003846  d :     0.039556
      dxz     :     0.003393
      dyz     :     0.005683
      dx2y2   :     0.012171
      dxy     :     0.014463
  4 C s       :     3.246285  s :     3.246285
      pz      :     0.990921  p :     2.934066
      px      :     1.007752
      py      :     0.935394
      dz2     :     0.003846  d :     0.039556
      dxz     :     0.003393
      dyz     :     0.005683
      dx2y2   :     0.012171
      dxy     :     0.014463
  5 C s       :     3.246278  s :     3.246278
      pz      :     0.990930  p :     2.934086
      px      :     0.899197
      py      :     1.043959
      dz2     :     0.003846  d :     0.039556
      dxz     :     0.006827
      dyz     :     0.002249
      dx2y2   :     0.015610
      dxy     :     0.011024
  6 H s       :     0.780093  s :     0.780093
  7 H s       :     0.780093  s :     0.780093
  8 H s       :     0.780080  s :     0.780080
  9 H s       :     0.780092  s :     0.780092
 10 H s       :     0.780093  s :     0.780093
 11 H s       :     0.780080  s :     0.780080


                     *******************************
                     * LOEWDIN POPULATION ANALYSIS *
                     *******************************

----------------------
LOEWDIN ATOMIC CHARGES
----------------------
   0 C :   -0.135688
   1 C :   -0.135688
   2 C :   -0.135695
   3 C :   -0.135688
   4 C :   -0.135688
   5 C :   -0.135695
   6 H :    0.135691
   7 H :    0.135691
   8 H :    0.135690
   9 H :    0.135691
  10 H :    0.135691
  11 H :    0.135690

-------------------------------
LOEWDIN REDUCED ORBITAL CHARGES
-------------------------------
  0 C s       :     2.894598  s :     2.894598
      pz      :     0.982544  p :     3.151799
      px      :     1.081895
      py      :     1.087359
      dz2     :     0.006271  d :     0.089291
      dxz     :     0.006024
      dyz     :     0.011430
      dx2y2   :     0.030810
      dxy     :     0.034756
  1 C s       :     2.894598  s :     2.894598
      pz      :     0.982544  p :     3.151799
      px      :     1.081895
      py      :     1.087359
      dz2     :     0.006271  d :     0.089291
      dxz     :     0.006024
      dyz     :     0.011430
      dx2y2   :     0.030810
      dxy     :     0.034756
  2 C s       :     2.894599  s :     2.894599
      pz      :     0.982548  p :     3.151805
      px      :     1.090090
      py      :     1.079167
      dz2     :     0.006271  d :     0.089291
      dxz     :     0.014133
      dyz     :     0.003321
      dx2y2   :     0.036729
      dxy     :     0.028837
  3 C s       :     2.894598  s :     2.894598
      pz      :     0.982544  p :     3.151799
      px      :     1.081895
      py      :     1.087359
      dz2     :     0.006271  d :     0.089291
      dxz     :     0.006024
      dyz     :     0.011430
      dx2y2   :     0.030810
      dxy     :     0.034756
  4 C s       :     2.894598  s :     2.894598
      pz      :     0.982544  p :     3.151799
      px      :     1.081895
      py      :     1.087359
      dz2     :     0.006271  d :     0.089291
      dxz     :     0.006024
      dyz     :     0.011430
      dx2y2   :     0.030810
      dxy     :     0.034756
  5 C s       :     2.894599  s :     2.894599
      pz      :     0.982548  p :     3.151805
      px      :     1.090090
      py      :     1.079167
      dz2     :     0.006271  d :     0.089291
      dxz     :     0.014133
      dyz     :     0.003321
      dx2y2   :     0.036729
      dxy     :     0.028837
  6 H s       :     0.864309  s :     0.864309
  7 H s       :     0.864309  s :     0.864309
  8 H s       :     0.864310  s :     0.864310
  9 H s       :     0.864309  s :     0.864309
 10 H s       :     0.864309  s :     0.864309
 11 H s       :     0.864310  s :     0.864310


                      *****************************
                      * MAYER POPULATION ANALYSIS *
                      *****************************

  NA   - Mulliken gross atomic population
  ZA   - Total nuclear charge
  QA   - Mulliken gross atomic charge
  VA   - Mayer's total valence
  BVA  - Mayer's bonded valence
  FA   - Mayer's free valence

  ATOM       NA         ZA         QA         VA         BVA        FA
  0 C      6.2199     6.0000    -0.2199     3.8193     3.8193     0.0000
  1 C      6.2199     6.0000    -0.2199     3.8193     3.8193     0.0000
  2 C      6.2199     6.0000    -0.2199     3.8193     3.8193     0.0000
  3 C      6.2199     6.0000    -0.2199     3.8193     3.8193    -0.0000
  4 C      6.2199     6.0000    -0.2199     3.8193     3.8193    -0.0000
  5 C      6.2199     6.0000    -0.2199     3.8193     3.8193    -0.0000
  6 H      0.7801     1.0000     0.2199     0.9117     0.9117     0.0000
  7 H      0.7801     1.0000     0.2199     0.9117     0.9117    -0.0000
  8 H      0.7801     1.0000     0.2199     0.9117     0.9117    -0.0000
  9 H      0.7801     1.0000     0.2199     0.9117     0.9117    -0.0000
 10 H      0.7801     1.0000     0.2199     0.9117     0.9117    -0.0000
 11 H      0.7801     1.0000     0.2199     0.9117     0.9117     0.0000

  Mayer bond orders larger than 0.100000
B(  0-C ,  1-C ) :   1.4265 B(  0-C ,  5-C ) :   1.4264 B(  0-C ,  6-H ) :   0.9200 
B(  1-C ,  2-C ) :   1.4264 B(  1-C ,  7-H ) :   0.9200 B(  2-C ,  3-C ) :   1.4264 
B(  2-C ,  8-H ) :   0.9200 B(  3-C ,  4-C ) :   1.4265 B(  3-C ,  9-H ) :   0.9200 
B(  4-C ,  5-C ) :   1.4264 B(  4-C , 10-H ) :   0.9200 B(  5-C , 11-H ) :   0.9200 


-------
TIMINGS
-------

Total SCF time: 0 days 0 hours 0 min 57 sec 

Total time                  ....      57.819 sec
Sum of individual times     ....      51.907 sec  ( 89.8%)

Fock matrix formation       ....      41.234 sec  ( 71.3%)
  Split-RI-J                ....       4.633 sec  ( 11.2% of F)
  Chain of spheres X        ....      13.889 sec  ( 33.7% of F)
  XC integration            ....      12.210 sec  ( 29.6% of F)
    Basis function eval.    ....       2.023 sec  ( 16.6% of XC)
    Density eval.           ....       1.427 sec  ( 11.7% of XC)
    XC-Functional eval.     ....       1.052 sec  (  8.6% of XC)
    XC-Potential eval.      ....       0.912 sec  (  7.5% of XC)
Diagonalization             ....       1.771 sec  (  3.1%)
Density matrix formation    ....       0.270 sec  (  0.5%)
Population analysis         ....       1.044 sec  (  1.8%)
Initial guess               ....       0.008 sec  (  0.0%)
Orbital Transformation      ....       0.000 sec  (  0.0%)
Orbital Orthonormalization  ....       0.000 sec  (  0.0%)
DIIS solution               ....       1.096 sec  (  1.9%)
SOSCF solution              ....       0.602 sec  (  1.0%)
Grid generation             ....       5.882 sec  ( 10.2%)

Maximum memory used throughout the entire SCF-calculation: 50.8 MB


-------------------------------------------------------------------------------
                          DFT DISPERSION CORRECTION                            
                                                                               
                              DFTD3 V3.1  Rev 1                                
                          USING Becke-Johnson damping                          
-------------------------------------------------------------------------------
The PBEh-3c composite method is recognized
Using three-body term ABC
Active option DFTDOPT                   ...         4   

molecular C6(AA) [au] = 1659.248055 


            DFT-D V3
 parameters
 s6 scaling factor         :     1.0000 
 a1 scaling factor         :     0.4860 
 s8 scaling factor         :     0.0000 
 a2 scaling factor         :     4.5000 
 Damping factor alpha9(ATM):    16.0000 
 ad hoc parameters k1-k3   :    16.0000     1.3333    -4.0000 

 Edisp/kcal,au: -3.689758116931  -0.005880003212 
 E6   /kcal   :  -3.695696619 
 E8   /kcal   :  -0.000000000 
 E6(ABC)      :   0.005938502 
 % E8         :   0.000000000 
 % E6(ABC)    :  -0.160945563 

-------------------------   ----------------
Dispersion correction           -0.005880003
-------------------------   ----------------

------------------   -----------------
gCP correction             0.015144382
------------------   -----------------

-------------------------   --------------------
FINAL SINGLE POINT ENERGY      -231.725759407329
-------------------------   --------------------


                            ***************************************
                            *     ORCA property calculations      *
                            ***************************************

                                    ---------------------
                                    Active property flags
                                    ---------------------
   (+) Dipole Moment


------------------------------------------------------------------------------
                       ORCA ELECTRIC PROPERTIES CALCULATION
------------------------------------------------------------------------------

Dipole Moment Calculation                       ... on
Quadrupole Moment Calculation                   ... off
Polarizability Calculation                      ... off
GBWName                                         ... pbeh-3c.gbw
Electron density                                ... pbeh-3c.scfp
The origin for moment calculation is the CENTER OF MASS  = ( 0.000000,  0.000000  0.000000)

-------------
DIPOLE MOMENT
-------------
                                X             Y             Z
Electronic contribution:      0.00000       0.00000       0.00000
Nuclear contribution   :      0.00000       0.00000       0.00000
                        -----------------------------------------
Total Dipole Moment    :      0.00000       0.00000       0.00000
                        -----------------------------------------
Magnitude (a.u.)       :      0.00000
Magnitude (Debye)      :      0.00000



--------------------
Rotational spectrum 
--------------------
 
Rotational constants in cm-1:     0.190286     0.190286     0.095143 
Rotational constants in MHz :  5704.627308  5704.627089  2852.313599 

 Dipole components along the rotational axes: 
x,y,z [a.u.] :     0.000000     0.000000     0.000000 
x,y,z [Debye]:     0.000000     0.000000     0.000000 

 

Timings for individual modules:

Sum of individual times         ...       61.668 sec (=   1.028 min)
GTO integral calculation        ...        2.855 sec (=   0.048 min)   4.6 %
SCF iterations                  ...       58.814 sec (=   0.980 min)  95.4 %
                             ****ORCA TERMINATED NORMALLY****
TOTAL RUN TIME: 0 days 0 hours 1 minutes 5 seconds 206 msec
