
                                 *****************
                                 * O   R   C   A *
                                 *****************

                                            #,                                       
                                            ###                                      
                                            ####                                     
                                            #####                                    
                                            ######                                   
                                           ########,                                 
                                     ,,################,,,,,                         
                               ,,#################################,,                 
                          ,,##########################################,,             
                       ,#########################################, ''#####,          
                    ,#############################################,,   '####,        
                  ,##################################################,,,,####,       
                ,###########''''           ''''###############################       
              ,#####''   ,,,,##########,,,,          '''####'''          '####       
            ,##' ,,,,###########################,,,                        '##       
           ' ,,###''''                  '''############,,,                           
         ,,##''                                '''############,,,,        ,,,,,,###''
      ,#''                                            '''#######################'''  
     '                                                          ''''####''''         
             ,#######,   #######,   ,#######,      ##                                
            ,#'     '#,  ##    ##  ,#'     '#,    #''#        ######   ,####,        
            ##       ##  ##   ,#'  ##            #'  '#       #        #'  '#        
            ##       ##  #######   ##           ,######,      #####,   #    #        
            '#,     ,#'  ##    ##  '#,     ,#' ,#      #,         ##   #,  ,#        
             '#######'   ##     ##  '#######'  #'      '#     #####' # '####'        



                  #######################################################
                  #                        -***-                        #
                  #          Department of theory and spectroscopy      #
                  #    Directorship and core code : Frank Neese         #
                  #        Max Planck Institute fuer Kohlenforschung    #
                  #                Kaiser Wilhelm Platz 1               #
                  #                 D-45470 Muelheim/Ruhr               #
                  #                      Germany                        #
                  #                                                     #
                  #                  All rights reserved                #
                  #                        -***-                        #
                  #######################################################


                         Program Version 5.0.3 -  RELEASE  -


 With contributions from (in alphabetic order):
   Daniel Aravena         : Magnetic Suceptibility
   Michael Atanasov       : Ab Initio Ligand Field Theory (pilot matlab implementation)
   Alexander A. Auer      : GIAO ZORA, VPT2 properties, NMR spectrum
   Ute Becker             : Parallelization
   Giovanni Bistoni       : ED, misc. LED, open-shell LED, HFLD
   Martin Brehm           : Molecular dynamics
   Dmytro Bykov           : SCF Hessian
   Vijay G. Chilkuri      : MRCI spin determinant printing, contributions to CSF-ICE
   Dipayan Datta          : RHF DLPNO-CCSD density
   Achintya Kumar Dutta   : EOM-CC, STEOM-CC
   Dmitry Ganyushin       : Spin-Orbit,Spin-Spin,Magnetic field MRCI
   Miquel Garcia          : C-PCM and meta-GGA Hessian, CC/C-PCM, Gaussian charge scheme
   Yang Guo               : DLPNO-NEVPT2, F12-NEVPT2, CIM, IAO-localization
   Andreas Hansen         : Spin unrestricted coupled pair/coupled cluster methods
   Benjamin Helmich-Paris : MC-RPA, TRAH-SCF, COSX integrals
   Lee Huntington         : MR-EOM, pCC
   Robert Izsak           : Overlap fitted RIJCOSX, COSX-SCS-MP3, EOM
   Marcus Kettner         : VPT2
   Christian Kollmar      : KDIIS, OOCD, Brueckner-CCSD(T), CCSD density, CASPT2, CASPT2-K
   Simone Kossmann        : Meta GGA functionals, TD-DFT gradient, OOMP2, MP2 Hessian
   Martin Krupicka        : Initial AUTO-CI
   Lucas Lang             : DCDCAS
   Marvin Lechner         : AUTO-CI (C++ implementation), FIC-MRCC
   Dagmar Lenk            : GEPOL surface, SMD
   Dimitrios Liakos       : Extrapolation schemes; Compound Job, initial MDCI parallelization
   Dimitrios Manganas     : Further ROCIS development; embedding schemes
   Dimitrios Pantazis     : SARC Basis sets
   Anastasios Papadopoulos: AUTO-CI, single reference methods and gradients
   Taras Petrenko         : DFT Hessian,TD-DFT gradient, ASA, ECA, R-Raman, ABS, FL, XAS/XES, NRVS
   Peter Pinski           : DLPNO-MP2, DLPNO-MP2 Gradient
   Christoph Reimann      : Effective Core Potentials
   Marius Retegan         : Local ZFS, SOC
   Christoph Riplinger    : Optimizer, TS searches, QM/MM, DLPNO-CCSD(T), (RO)-DLPNO pert. Triples
   Tobias Risthaus        : Range-separated hybrids, TD-DFT gradient, RPA, STAB
   Michael Roemelt        : Original ROCIS implementation
   Masaaki Saitow         : Open-shell DLPNO-CCSD energy and density
   Barbara Sandhoefer     : DKH picture change effects
   Avijit Sen             : IP-ROCIS
   Kantharuban Sivalingam : CASSCF convergence, NEVPT2, FIC-MRCI
   Bernardo de Souza      : ESD, SOC TD-DFT
   Georgi Stoychev        : AutoAux, RI-MP2 NMR, DLPNO-MP2 response
   Willem Van den Heuvel  : Paramagnetic NMR
   Boris Wezisla          : Elementary symmetry handling
   Frank Wennmohs         : Technical directorship


 We gratefully acknowledge several colleagues who have allowed us to
 interface, adapt or use parts of their codes:
   Stefan Grimme, W. Hujo, H. Kruse, P. Pracht,  : VdW corrections, initial TS optimization,
                  C. Bannwarth, S. Ehlert          DFT functionals, gCP, sTDA/sTD-DF
   Ed Valeev, F. Pavosevic, A. Kumar             : LibInt (2-el integral package), F12 methods
   Garnet Chan, S. Sharma, J. Yang, R. Olivares  : DMRG
   Ulf Ekstrom                                   : XCFun DFT Library
   Mihaly Kallay                                 : mrcc  (arbitrary order and MRCC methods)
   Jiri Pittner, Ondrej Demel                    : Mk-CCSD
   Frank Weinhold                                : gennbo (NPA and NBO analysis)
   Christopher J. Cramer and Donald G. Truhlar   : smd solvation model
   Lars Goerigk                                  : TD-DFT with DH, B97 family of functionals
   V. Asgeirsson, H. Jonsson                     : NEB implementation
   FAccTs GmbH                                   : IRC, NEB, NEB-TS, DLPNO-Multilevel, CI-OPT
                                                   MM, QMMM, 2- and 3-layer-ONIOM, Crystal-QMMM,
                                                   LR-CPCM, SF, NACMEs, symmetry and pop. for TD-DFT,
                                                   nearIR, NL-DFT gradient (VV10), updates on ESD,
                                                   ML-optimized integration grids
   S Lehtola, MJT Oliveira, MAL Marques          : LibXC Library
   Liviu Ungur et al                             : ANISO software


 Your calculation uses the libint2 library for the computation of 2-el integrals
 For citations please refer to: http://libint.valeyev.net

 Your ORCA version has been built with support for libXC version: 5.1.0
 For citations please refer to: https://tddft.org/programs/libxc/

 This ORCA versions uses:
   CBLAS   interface :  Fast vector & matrix operations
   LAPACKE interface :  Fast linear algebra routines
   SCALAPACK package :  Parallel linear algebra routines
   Shared memory     :  Shared parallel matrices
   BLAS/LAPACK       :  OpenBLAS 0.3.15  USE64BITINT DYNAMIC_ARCH NO_AFFINITY Haswell SINGLE_THREADED
        Core in use  :  Haswell
   Copyright (c) 2011-2014, The OpenBLAS Project




***************************************
The coordinates will be read from file: 27_CH3Br-benAB.xyz
***************************************


Your calculation utilizes the geometrical counterpoise correction gCP
Please cite in your paper:
H.Kruse, S. Grimme J.Chem.Phys., 136, (2012), 154101 
   

Your calculation utilizes the atom-pairwise dispersion correction
with the Becke-Johnson damping scheme (D3BJ)
Cite in your paper:
S.Grimme, S.Ehrlich, L.Goerigk, J Comput Chem, (2011), 32, 1456–1465 
S.Grimme, J.Antony, S.Ehrlich and H.Krieg, J.Chem.Phys., 132, (2010), 154104 
   

Your calculation employs the composite approach PBEh-3c.
Please cite in your paper:
S. Grimme, J. G. Brandenburg, C. Bannwarth, A. Hansen J.Chem.Phys., 143, (2015), 054107 
   

================================================================================

----- Orbital basis set information -----
Your calculation utilizes the basis: def2-mSVP

----- AuxJ basis set information -----
Your calculation utilizes the auxiliary basis: def2/J
   F. Weigend, Phys. Chem. Chem. Phys. 8, 1057 (2006).

================================================================================
                                        WARNINGS
                       Please study these warnings very carefully!
================================================================================


INFO   : the flag for use of the SHARK integral package has been found!

================================================================================
                                       INPUT FILE
================================================================================
NAME = pbeh-3c.inp
|  1> ! PBEh-3c def2/J TightSCF DefGrid3
|  2> 
|  3> %maxcore 60000
|  4> 
|  5> %pal
|  6> nprocs 4
|  7> end
|  8> 
|  9> *xyzfile 0 1 27_CH3Br-benAB.xyz
| 10> 
| 11>                          ****END OF INPUT****
================================================================================

                       ****************************
                       * Single Point Calculation *
                       ****************************

---------------------------------
CARTESIAN COORDINATES (ANGSTROEM)
---------------------------------
  H      0.007708    0.214277    0.052325
  C      0.010386    0.200474    1.133645
  C      1.217878    0.246169    1.828432
  C      1.221256    0.223183    3.221704
  C      0.017504    0.154434    3.920526
  C     -1.189795    0.108384    3.226223
  C     -1.193621    0.131422    1.832737
  H      2.152051    0.294829    1.285815
  H      2.158359    0.255184    3.760584
  H      0.020469    0.133278    5.001768
  H     -2.123727    0.050629    3.768358
  H     -2.130145    0.090892    1.293508
  Br    -0.037667   -3.295073    1.773240
  C      0.090914   -5.222622    1.868972
  H      0.022220   -5.618701    0.863215
  H      1.044381   -5.477357    2.315267
  H     -0.725846   -5.587601    2.479578

----------------------------
CARTESIAN COORDINATES (A.U.)
----------------------------
  NO LB      ZA    FRAG     MASS         X           Y           Z
   0 H     1.0000    0     1.008    0.014566    0.404925    0.098881
   1 C     6.0000    0    12.011    0.019626    0.378841    2.142278
   2 C     6.0000    0    12.011    2.301456    0.465191    3.455236
   3 C     6.0000    0    12.011    2.307839    0.421755    6.088138
   4 C     6.0000    0    12.011    0.033078    0.291839    7.408721
   5 C     6.0000    0    12.011   -2.248386    0.204817    6.096679
   6 C     6.0000    0    12.011   -2.255616    0.248353    3.463371
   7 H     1.0000    0     1.008    4.066788    0.557146    2.429838
   8 H     1.0000    0     1.008    4.078707    0.482229    7.106473
   9 H     1.0000    0     1.008    0.038681    0.251858    9.451972
  10 H     1.0000    0     1.008   -4.013262    0.095675    7.121164
  11 H     1.0000    0     1.008   -4.025390    0.171761    2.444377
  12 Br   35.0000    0    79.900   -0.071181   -6.226786    3.350938
  13 C     6.0000    0    12.011    0.171803   -9.869326    3.531845
  14 H     1.0000    0     1.008    0.041990  -10.617806    1.631241
  15 H     1.0000    0     1.008    1.973594  -10.350705    4.375220
  16 H     1.0000    0     1.008   -1.371651  -10.559037    4.685724

--------------------------------
INTERNAL COORDINATES (ANGSTROEM)
--------------------------------
 H      0   0   0     0.000000000000     0.00000000     0.00000000
 C      1   0   0     1.081410512304     0.00000000     0.00000000
 C      2   1   0     1.393863631228   120.00965330     0.00000000
 C      3   2   1     1.393465379152   119.99678603   180.24644534
 C      4   3   2     1.393591465775   120.00691305     0.00000000
 C      5   4   3     1.393465993725   120.01017429     0.00000000
 C      6   5   4     1.393681879466   120.00119844     0.00000000
 H      3   2   1     1.081425491196   119.98014098   359.96330988
 H      4   3   2     1.081470083663   119.98859117   179.78820473
 H      5   4   3     1.081452833956   119.99690188   179.79620995
 H      6   5   4     1.081422502129   120.01435314   179.73006728
 H      7   6   5     1.081428687187   120.02078319   179.70546571
 Br     2   1   3     3.553905116167   101.09729397   266.59188955
 C     13   2   1     1.934203441417   171.19083706    31.72166418
 H     14  13   2     1.083117283648   108.31555954   323.66812984
 H     14  13  15     1.083128423832   108.25752203   120.00855752
 H     14  13  16     1.083119569324   108.27532144   119.97325139

---------------------------
INTERNAL COORDINATES (A.U.)
---------------------------
 H      0   0   0     0.000000000000     0.00000000     0.00000000
 C      1   0   0     2.043569706598     0.00000000     0.00000000
 C      2   1   0     2.634020531054   120.00965330     0.00000000
 C      3   2   1     2.633267943697   119.99678603   180.24644534
 C      4   3   2     2.633506212885   120.00691305     0.00000000
 C      5   4   3     2.633269105073   120.01017429     0.00000000
 C      6   5   4     2.633677070000   120.00119844     0.00000000
 H      3   2   1     2.043598012601   119.98014098   359.96330988
 H      4   3   2     2.043682280152   119.98859117   179.78820473
 H      5   4   3     2.043649682930   119.99690188   179.79620995
 H      6   5   4     2.043592364084   120.01435314   179.73006728
 H      7   6   5     2.043604052150   120.02078319   179.70546571
 Br     2   1   3     6.715907375497   101.09729397   266.59188955
 C     13   2   1     3.655114791567   171.19083706    31.72166418
 H     14  13   2     2.046795037011   108.31555954   323.66812984
 H     14  13  15     2.046816088909   108.25752203   120.00855752
 H     14  13  16     2.046799356314   108.27532144   119.97325139

---------------------
BASIS SET INFORMATION
---------------------
There are 3 groups of distinct atoms

 Group   1 Type H   : 4s contracted to 2s pattern {31}
 Group   2 Type C   : 8s4p1d contracted to 4s2p1d pattern {5111/31/1}
 Group   3 Type Br  : 14s10p6d contracted to 5s4p3d pattern {63311/5311/411}

Atom   0H    basis set group =>   1
Atom   1C    basis set group =>   2
Atom   2C    basis set group =>   2
Atom   3C    basis set group =>   2
Atom   4C    basis set group =>   2
Atom   5C    basis set group =>   2
Atom   6C    basis set group =>   2
Atom   7H    basis set group =>   1
Atom   8H    basis set group =>   1
Atom   9H    basis set group =>   1
Atom  10H    basis set group =>   1
Atom  11H    basis set group =>   1
Atom  12Br   basis set group =>   3
Atom  13C    basis set group =>   2
Atom  14H    basis set group =>   1
Atom  15H    basis set group =>   1
Atom  16H    basis set group =>   1
---------------------------------
AUXILIARY/J BASIS SET INFORMATION
---------------------------------
There are 3 groups of distinct atoms

 Group   1 Type H   : 5s2p1d contracted to 3s1p1d pattern {311/2/1}
 Group   2 Type C   : 12s5p4d2f1g contracted to 6s4p3d1f1g pattern {711111/2111/211/2/1}
 Group   3 Type Br  : 19s5p5d3f1g contracted to 8s4p3d2f1g pattern {121111111/2111/311/21/1}

Atom   0H    basis set group =>   1
Atom   1C    basis set group =>   2
Atom   2C    basis set group =>   2
Atom   3C    basis set group =>   2
Atom   4C    basis set group =>   2
Atom   5C    basis set group =>   2
Atom   6C    basis set group =>   2
Atom   7H    basis set group =>   1
Atom   8H    basis set group =>   1
Atom   9H    basis set group =>   1
Atom  10H    basis set group =>   1
Atom  11H    basis set group =>   1
Atom  12Br   basis set group =>   3
Atom  13C    basis set group =>   2
Atom  14H    basis set group =>   1
Atom  15H    basis set group =>   1
Atom  16H    basis set group =>   1


           ************************************************************
           *        Program running with 4 parallel MPI-processes     *
           *              working on a common directory               *
           ************************************************************
------------------------------------------------------------------------------
                           ORCA GTO INTEGRAL CALCULATION
                           -- RI-GTO INTEGRALS CHOSEN --
------------------------------------------------------------------------------
------------------------------------------------------------------------------
                   ___                                                        
                  /   \      - P O W E R E D   B Y -                         
                 /     \                                                     
                 |  |  |   _    _      __       _____    __    __             
                 |  |  |  | |  | |    /  \     |  _  \  |  |  /  |          
                  \  \/   | |  | |   /    \    | | | |  |  | /  /          
                 / \  \   | |__| |  /  /\  \   | |_| |  |  |/  /          
                |  |  |   |  __  | /  /__\  \  |    /   |      \           
                |  |  |   | |  | | |   __   |  |    \   |  |\   \          
                \     /   | |  | | |  |  |  |  | |\  \  |  | \   \       
                 \___/    |_|  |_| |__|  |__|  |_| \__\ |__|  \__/        
                                                                              
                      - O R C A' S   B I G   F R I E N D -                    
                                      &                                       
                       - I N T E G R A L  F E E D E R -                       
                                                                              
 v1 FN, 2020, v2 2021                                                         
------------------------------------------------------------------------------


Reading SHARK input file pbeh-3c.SHARKINP.tmp ... ok
----------------------
SHARK INTEGRAL PACKAGE
----------------------

Number of atoms                             ...     17
Number of basis functions                   ...    155
Number of shells                            ...     79
Maximum angular momentum                    ...      2
Integral batch strategy                     ... SHARK/LIBINT Hybrid
RI-J (if used) integral strategy            ... SPLIT-RIJ (Revised 2003 algorithm where possible)
Printlevel                                  ...      1
Contraction scheme used                     ... SEGMENTED contraction
Coulomb Range Separation                    ... NOT USED
Exchange Range Separation                   ... NOT USED
Finite Nucleus Model                        ... NOT USED
Auxiliary Coulomb fitting basis             ... AVAILABLE
   # of basis functions in Aux-J            ...    500
   # of shells in Aux-J                     ...    168
   Maximum angular momentum in Aux-J        ...      4
Auxiliary J/K fitting basis                 ... NOT available
Auxiliary Correlation fitting basis         ... NOT available
Auxiliary 'external' fitting basis          ... NOT available
Integral threshold                          ...     2.500000e-11
Primitive cut-off                           ...     2.500000e-12
Primitive pair pre-selection threshold      ...     2.500000e-12

Calculating pre-screening integrals         ... done (  0.0 sec) Dimension = 79
Organizing shell pair data                  ... done (  0.4 sec)
Shell pair information
Total number of shell pairs                 ...      3160
Shell pairs after pre-screening             ...      2633
Total number of primitive shell pairs       ...     12561
Primitive shell pairs kept                  ...      7166
          la=0 lb=0:   1055 shell pairs
          la=1 lb=0:    808 shell pairs
          la=1 lb=1:    164 shell pairs
          la=2 lb=0:    400 shell pairs
          la=2 lb=1:    161 shell pairs
          la=2 lb=2:     45 shell pairs

Calculating one electron integrals          ... done (  0.0 sec)
Calculating RI/J V-Matrix + Cholesky decomp.... done (  0.3 sec)
Calculating Nuclear repulsion               ... done (  0.1 sec) ENN=    528.849028053955 Eh

SHARK setup successfully completed in   1.8 seconds

Maximum memory used throughout the entire GTOINT-calculation: 12.2 MB


           ************************************************************
           *        Program running with 4 parallel MPI-processes     *
           *              working on a common directory               *
           ************************************************************
-------------------------------------------------------------------------------
                                 ORCA SCF
-------------------------------------------------------------------------------

------------
SCF SETTINGS
------------
Hamiltonian:
 Density Functional     Method          .... DFT(GTOs)
 Exchange Functional    Exchange        .... PBE
   PBE kappa parameter   XKappa         ....  1.024500
   PBE mue parameter    XMuePBE         ....  0.123457
 Correlation Functional Correlation     .... PBE
   PBE beta parameter  CBetaPBE         ....  0.030000
 LDA part of GGA corr.  LDAOpt          .... PW91-LDA
 Gradients option       PostSCFGGA      .... off
 Hybrid DFT is turned on
   Fraction HF Exchange ScalHFX         ....  0.420000
   Scaling of DF-GGA-X  ScalDFX         ....  0.580000
   Scaling of DF-GGA-C  ScalDFC         ....  1.000000
   Scaling of DF-LDA-C  ScalLDAC        ....  1.000000
   Perturbative correction              ....  0.000000
   Density functional embedding theory  .... OFF
 RI-approximation to the Coulomb term is turned on
   Number of AuxJ basis functions       .... 500
   RIJ-ON(X) (HFX calculated with O(N)) .... on
   Number of AuxJ basis functions       .... 500
   RIJ-COSX (HFX calculated with COS-X)).... on


General Settings:
 Integral files         IntName         .... pbeh-3c
 Hartree-Fock type      HFTyp           .... RHF
 Total Charge           Charge          ....    0
 Multiplicity           Mult            ....    1
 Number of Electrons    NEL             ....   86
 Basis Dimension        Dim             ....  155
 Nuclear Repulsion      ENuc            ....    528.8490280540 Eh

Convergence Acceleration:
 DIIS                   CNVDIIS         .... on
   Start iteration      DIISMaxIt       ....    12
   Startup error        DIISStart       ....  0.200000
   # of expansion vecs  DIISMaxEq       ....     5
   Bias factor          DIISBfac        ....   1.050
   Max. coefficient     DIISMaxC        ....  10.000
 Trust-Rad. Augm. Hess. CNVTRAH         .... auto
   Auto Start mean grad. ratio tolernc. ....  1.125000
   Auto Start start iteration           ....    20
   Auto Start num. interpolation iter.  ....    10
   Max. Number of Micro iterations      ....    16
   Max. Number of Macro iterations      .... Maxiter - #DIIS iter
   Number of Davidson start vectors     ....     2
   Converg. threshold I  (grad. norm)   ....   1.000e-05
   Converg. threshold II (energy diff.) ....   1.000e-08
   Grad. Scal. Fac. for Micro threshold ....   0.100
   Minimum threshold for Micro iter.    ....   0.010
   NR start threshold (gradient norm)   ....   0.001
   Initial trust radius                 ....   0.400
   Minimum AH scaling param. (alpha)    ....   1.000
   Maximum AH scaling param. (alpha)    .... 1000.000
   Orbital update algorithm             .... Taylor
   White noise on init. David. guess    .... on
   Maximum white noise                  ....   0.010
   Quad. conv. algorithm                .... NR
   COSX micro iterations for RIJONX calc.... off
 SOSCF                  CNVSOSCF        .... on
   Start iteration      SOSCFMaxIt      ....   150
   Startup grad/error   SOSCFStart      ....  0.003300
 Level Shifting         CNVShift        .... on
   Level shift para.    LevelShift      ....    0.2500
   Turn off err/grad.   ShiftErr        ....    0.0010
 Zerner damping         CNVZerner       .... off
 Static damping         CNVDamp         .... on
   Fraction old density DampFac         ....    0.7000
   Max. Damping (<1)    DampMax         ....    0.9800
   Min. Damping (>=0)   DampMin         ....    0.0000
   Turn off err/grad.   DampErr         ....    0.1000
 Fernandez-Rico         CNVRico         .... off

SCF Procedure:
 Maximum # iterations   MaxIter         ....   125
 SCF integral mode      SCFMode         .... Direct
   Integral package                     .... SHARK and LIBINT hybrid scheme
 Reset frequency        DirectResetFreq ....    20
 Integral Threshold     Thresh          ....  2.500e-11 Eh
 Primitive CutOff       TCut            ....  2.500e-12 Eh

Convergence Tolerance:
 Convergence Check Mode ConvCheckMode   .... Total+1el-Energy
 Convergence forced     ConvForced      .... 0
 Energy Change          TolE            ....  1.000e-08 Eh
 1-El. energy change                    ....  1.000e-05 Eh
 Orbital Gradient       TolG            ....  1.000e-05
 Orbital Rotation angle TolX            ....  1.000e-05
 DIIS Error             TolErr          ....  5.000e-07


Diagonalization of the overlap matrix:
Smallest eigenvalue                        ... 4.879e-04
Time for diagonalization                   ...    0.004 sec
Threshold for overlap eigenvalues          ... 1.000e-08
Number of eigenvalues below threshold      ... 0
Time for construction of square roots      ...    0.064 sec
Total time needed                          ...    0.108 sec

--------------------------------
INITIAL GUESS: MINIMAL BASIS EHT
--------------------------------
The minimal basis has 62 functions
EHT matrix was diagonalized
Basis set overlap was calculated now projecting the orbitals
Using GuessMode=FMatrix for the initial guess
C*T matrix was formed
Effective Fockian was calculated
Effective Fockian was diagonalized
Initial density was built
                      ------------------
                      INITIAL GUESS DONE
                      ------------------
-------------------
DFT GRID GENERATION
-------------------

General Integration Accuracy     IntAcc      ... 4.959
Radial Grid Type                 RadialGrid  ... OptM3 with GC (2021)
Angular Grid (max. ang.)         AngularGrid ... 6 (Lebedev-590)
Angular grid pruning method      GridPruning ... 4 (adaptive)
Weight generation scheme         WeightScheme... Becke
Basis function cutoff            BFCut       ... 1.0000e-11
Integration weight cutoff        WCut        ... 1.0000e-14
Angular grids for H and He will be reduced by one unit
Partially contracted basis set               ... off
Rotationally invariant grid construction     ... off

Total number of grid points                  ...   207275
Total number of batches                      ...     3247
Average number of points per batch           ...       63
Average number of grid points per atom       ...    12193
Time for grid setup =    3.720 sec

--------------------
COSX GRID GENERATION
--------------------

GRIDX 1
-------
General Integration Accuracy     IntAcc      ... 4.020
Radial Grid Type                 RadialGrid  ... OptM3 with GC (2021)
Angular Grid (max. ang.)         AngularGrid ... 2 (Lebedev-110)
Angular grid pruning method      GridPruning ... 4 (adaptive)
Weight generation scheme         WeightScheme... Becke
Basis function cutoff            BFCut       ... 1.0000e-11
Integration weight cutoff        WCut        ... 1.0000e-14
Angular grids for H and He will be reduced by one unit
Partially contracted basis set               ... on
Rotationally invariant grid construction     ... off

Total number of grid points                  ...    22158
Total number of batches                      ...      353
Average number of points per batch           ...       62
Average number of grid points per atom       ...     1303
UseSFitting                                  ... on

GRIDX 2
-------
General Integration Accuracy     IntAcc      ... 4.338
Radial Grid Type                 RadialGrid  ... OptM3 with GC (2021)
Angular Grid (max. ang.)         AngularGrid ... 3 (Lebedev-194)
Angular grid pruning method      GridPruning ... 4 (adaptive)
Weight generation scheme         WeightScheme... Becke
Basis function cutoff            BFCut       ... 1.0000e-11
Integration weight cutoff        WCut        ... 1.0000e-14
Angular grids for H and He will be reduced by one unit
Partially contracted basis set               ... on
Rotationally invariant grid construction     ... off

Total number of grid points                  ...    48873
Total number of batches                      ...      772
Average number of points per batch           ...       63
Average number of grid points per atom       ...     2875
UseSFitting                                  ... on

GRIDX 3
-------
General Integration Accuracy     IntAcc      ... 4.871
Radial Grid Type                 RadialGrid  ... OptM3 with GC (2021)
Angular Grid (max. ang.)         AngularGrid ... 4 (Lebedev-302)
Angular grid pruning method      GridPruning ... 4 (adaptive)
Weight generation scheme         WeightScheme... Becke
Basis function cutoff            BFCut       ... 1.0000e-11
Integration weight cutoff        WCut        ... 1.0000e-14
Angular grids for H and He will be reduced by one unit
Partially contracted basis set               ... on
Rotationally invariant grid construction     ... off

Total number of grid points                  ...    94831
Total number of batches                      ...     1490
Average number of points per batch           ...       63
Average number of grid points per atom       ...     5578
UseSFitting                                  ... on

Time for X-Grid setup             =    3.607 sec

--------------
SCF ITERATIONS
--------------
ITER       Energy         Delta-E        Max-DP      RMS-DP      [F,P]     Damp
               ***  Starting incremental Fock matrix formation  ***
  0  -2842.0306614909   0.000000000000 0.19320828  0.00518853  1.8530953 0.7000
  1  -2842.9091572370  -0.878495746081 0.11949465  0.00320725  1.0003884 0.7000
  2  -2843.4272821457  -0.518124908735 0.14440245  0.00226516  0.5457686 0.7000
  3  -2843.7733094257  -0.346027279987 0.13182608  0.00171394  0.3081002 0.7000
                               ***Turning on DIIS***
  4  -2844.0129329714  -0.239623545686 0.10658376  0.00129591  0.1800014 0.7000
  5  -2844.1804255316  -0.167492560190 0.08750484  0.00102745  0.1083285 0.7000
  6  -2844.2977931418  -0.117367610271 0.21397561  0.00253459  0.0777205 0.0000
                      *** Initiating the SOSCF procedure ***
                           *** Shutting down DIIS ***
                      *** Re-Reading the Fockian *** 
                      *** Removing any level shift *** 
ITER      Energy       Delta-E        Grad      Rot      Max-DP    RMS-DP
  7  -2844.57319216  -0.2753990149  0.001332  0.001332  0.006365  0.000091
               *** Restarting incremental Fock matrix formation ***
  8  -2844.57322766  -0.0000354985  0.000651  0.000714  0.004581  0.000049
  9  -2844.57323314  -0.0000054878  0.000459  0.000193  0.000507  0.000014
 10  -2844.57323387  -0.0000007265  0.000062  0.000096  0.000151  0.000004
 11  -2844.57323393  -0.0000000647  0.000031  0.000058  0.000064  0.000002
 12  -2844.57323394  -0.0000000083  0.000024  0.000019  0.000040  0.000001
                  ***Gradient check signals convergence***
              ***Rediagonalizing the Fockian in SOSCF/NRSCF***

               *****************************************************
               *                     SUCCESS                       *
               *           SCF CONVERGED AFTER  13 CYCLES          *
               *****************************************************

Old exchange energy                            =    -54.201636762 Eh
New exchange energy                            =    -54.201628695 Eh
Exchange energy change after final integration =      0.000008067 Eh
Total energy after final integration           =  -2844.573225880 Eh
Final COS-X integration done in                =     5.495 sec

----------------
TOTAL SCF ENERGY
----------------

Total Energy       :        -2844.57322588 Eh          -77404.77266 eV

Components:
Nuclear Repulsion  :          528.84902805 Eh           14390.71366 eV
Electronic Energy  :        -3373.42225393 Eh          -91795.48632 eV
One Electron Energy:        -5000.06094652 Eh         -136058.57544 eV
Two Electron Energy:         1626.63869259 Eh           44263.08912 eV
Max COSX asymmetry :            0.00000076 Eh               0.00002 eV

Virial components:
Potential Energy   :        -5685.20313874 Eh         -154702.24232 eV
Kinetic Energy     :         2840.62991286 Eh           77297.46966 eV
Virial Ratio       :            2.00138818


DFT components:
N(Alpha)           :       42.999999996164 electrons
N(Beta)            :       42.999999996164 electrons
N(Total)           :       85.999999992327 electrons
E(X)               :      -72.656026565660 Eh       
E(C)               :       -4.384084608287 Eh       
E(XC)              :      -77.040111173947 Eh       
DFET-embed. en.    :        0.000000000000 Eh       

---------------
SCF CONVERGENCE
---------------

  Last Energy change         ...   -4.3942e-09  Tolerance :   1.0000e-08
  Last MAX-Density change    ...    4.8850e-15  Tolerance :   1.0000e-07
  Last RMS-Density change    ...    6.4589e-17  Tolerance :   5.0000e-09
  Last Orbital Gradient      ...    1.8475e-06  Tolerance :   1.0000e-05
  Last Orbital Rotation      ...    1.8815e-06  Tolerance :   1.0000e-05

             **** THE GBW FILE WAS UPDATED (pbeh-3c.gbw) ****
             **** DENSITY pbeh-3c.scfp WAS UPDATED ****
             **** ENERGY FILE WAS UPDATED (pbeh-3c.en.tmp) ****
             **** THE GBW FILE WAS UPDATED (pbeh-3c.gbw) ****
             **** DENSITY pbeh-3c.scfp WAS UPDATED ****
----------------
ORBITAL ENERGIES
----------------

  NO   OCC          E(Eh)            E(eV) 
   0   2.0000    -484.505164    -13184.0558 
   1   2.0000     -63.168072     -1718.8906 
   2   2.0000     -56.872347     -1547.5752 
   3   2.0000     -56.870075     -1547.5134 
   4   2.0000     -56.870072     -1547.5133 
   5   2.0000     -10.482373      -285.2399 
   6   2.0000     -10.444824      -284.2181 
   7   2.0000     -10.444492      -284.2091 
   8   2.0000     -10.444443      -284.2077 
   9   2.0000     -10.443961      -284.1946 
  10   2.0000     -10.443816      -284.1907 
  11   2.0000     -10.443570      -284.1840 
  12   2.0000      -8.997053      -244.8223 
  13   2.0000      -6.771772      -184.2693 
  14   2.0000      -6.758774      -183.9156 
  15   2.0000      -6.758770      -183.9155 
  16   2.0000      -2.785329       -75.7927 
  17   2.0000      -2.781368       -75.6849 
  18   2.0000      -2.781363       -75.6847 
  19   2.0000      -2.770198       -75.3809 
  20   2.0000      -2.770198       -75.3809 
  21   2.0000      -0.948352       -25.8060 
  22   2.0000      -0.883300       -24.0358 
  23   2.0000      -0.831527       -22.6270 
  24   2.0000      -0.831426       -22.6243 
  25   2.0000      -0.738938       -20.1075 
  26   2.0000      -0.674877       -18.3643 
  27   2.0000      -0.674858       -18.3638 
  28   2.0000      -0.587985       -15.9999 
  29   2.0000      -0.521665       -14.1952 
  30   2.0000      -0.504405       -13.7256 
  31   2.0000      -0.498242       -13.5579 
  32   2.0000      -0.498199       -13.5567 
  33   2.0000      -0.477700       -12.9989 
  34   2.0000      -0.477679       -12.9983 
  35   2.0000      -0.435168       -11.8415 
  36   2.0000      -0.408417       -11.1136 
  37   2.0000      -0.394180       -10.7262 
  38   2.0000      -0.394144       -10.7252 
  39   2.0000      -0.315056        -8.5731 
  40   2.0000      -0.313781        -8.5384 
  41   2.0000      -0.287242        -7.8163 
  42   2.0000      -0.286137        -7.7862 
  43   0.0000       0.022682         0.6172 
  44   0.0000       0.023139         0.6296 
  45   0.0000       0.049577         1.3491 
  46   0.0000       0.144745         3.9387 
  47   0.0000       0.162913         4.4331 
  48   0.0000       0.194400         5.2899 
  49   0.0000       0.194596         5.2952 
  50   0.0000       0.200521         5.4565 
  51   0.0000       0.205872         5.6021 
  52   0.0000       0.205884         5.6024 
  53   0.0000       0.227679         6.1955 
  54   0.0000       0.227702         6.1961 
  55   0.0000       0.258320         7.0292 
  56   0.0000       0.330870         9.0034 
  57   0.0000       0.330987         9.0066 
  58   0.0000       0.332652         9.0519 
  59   0.0000       0.332693         9.0530 
  60   0.0000       0.380786        10.3617 
  61   0.0000       0.446982        12.1630 
  62   0.0000       0.453418        12.3381 
  63   0.0000       0.467531        12.7222 
  64   0.0000       0.469307        12.7705 
  65   0.0000       0.539938        14.6925 
  66   0.0000       0.557098        15.1594 
  67   0.0000       0.561227        15.2718 
  68   0.0000       0.563976        15.3466 
  69   0.0000       0.588193        16.0056 
  70   0.0000       0.593679        16.1548 
  71   0.0000       0.597187        16.2503 
  72   0.0000       0.617083        16.7917 
  73   0.0000       0.622228        16.9317 
  74   0.0000       0.623831        16.9753 
  75   0.0000       0.628931        17.1141 
  76   0.0000       0.633425        17.2364 
  77   0.0000       0.650979        17.7140 
  78   0.0000       0.658364        17.9150 
  79   0.0000       0.680559        18.5189 
  80   0.0000       0.689648        18.7663 
  81   0.0000       0.696711        18.9585 
  82   0.0000       0.737416        20.0661 
  83   0.0000       0.754584        20.5333 
  84   0.0000       0.758479        20.6393 
  85   0.0000       0.762827        20.7576 
  86   0.0000       0.835640        22.7389 
  87   0.0000       0.928590        25.2682 
  88   0.0000       0.947621        25.7861 
  89   0.0000       0.948196        25.8017 
  90   0.0000       0.972567        26.4649 
  91   0.0000       0.972702        26.4686 
  92   0.0000       0.973161        26.4811 
  93   0.0000       1.017058        27.6755 
  94   0.0000       1.017210        27.6797 
  95   0.0000       1.046718        28.4826 
  96   0.0000       1.049652        28.5625 
  97   0.0000       1.053203        28.6591 
  98   0.0000       1.078962        29.3601 
  99   0.0000       1.094917        29.7942 
 100   0.0000       1.096733        29.8436 
 101   0.0000       1.101853        29.9829 
 102   0.0000       1.102306        29.9953 
 103   0.0000       1.174595        31.9624 
 104   0.0000       1.285077        34.9687 
 105   0.0000       1.305039        35.5119 
 106   0.0000       1.306019        35.5386 
 107   0.0000       1.310397        35.6577 
 108   0.0000       1.445750        39.3409 
 109   0.0000       1.541800        41.9545 
 110   0.0000       1.541841        41.9556 
 111   0.0000       1.571816        42.7713 
 112   0.0000       1.572682        42.7949 
 113   0.0000       1.585265        43.1372 
 114   0.0000       1.755188        47.7611 
 115   0.0000       1.755303        47.7642 
 116   0.0000       1.820629        49.5418 
 117   0.0000       1.821277        49.5595 
 118   0.0000       1.915601        52.1262 
 119   0.0000       2.064829        56.1868 
 120   0.0000       2.064899        56.1888 
 121   0.0000       2.132652        58.0324 
 122   0.0000       2.140425        58.2439 
 123   0.0000       2.140579        58.2481 
 124   0.0000       2.201242        59.8989 
 125   0.0000       2.202998        59.9466 
 126   0.0000       2.208576        60.0984 
 127   0.0000       2.208978        60.1093 
 128   0.0000       2.284091        62.1533 
 129   0.0000       2.284350        62.1603 
 130   0.0000       2.377122        64.6848 
 131   0.0000       2.378235        64.7151 
 132   0.0000       2.379433        64.7477 
 133   0.0000       2.586845        70.3916 
 134   0.0000       2.587024        70.3965 
 135   0.0000       2.734906        74.4206 
 136   0.0000       2.747371        74.7598 
 137   0.0000       2.747876        74.7735 
 138   0.0000       2.794832        76.0512 
 139   0.0000       2.795003        76.0559 
 140   0.0000       2.843633        77.3792 
 141   0.0000       3.063891        83.3727 
 142   0.0000       3.456092        94.0451 
 143   0.0000       3.558307        96.8264 
 144   0.0000       3.558874        96.8419 
 145   0.0000       3.631329        98.8135 
 146   0.0000       3.633636        98.8763 
 147   0.0000       3.844132       104.6042 
 148   0.0000      13.241559       360.3211 
 149   0.0000      13.638599       371.1252 
 150   0.0000      13.639070       371.1380 
 151   0.0000      13.671353       372.0164 
 152   0.0000      14.109907       383.9501 
 153   0.0000      14.110320       383.9613 
 154   0.0000      14.548120       395.8745 

                    ********************************
                    * MULLIKEN POPULATION ANALYSIS *
                    ********************************

-----------------------
MULLIKEN ATOMIC CHARGES
-----------------------
   0 H :    0.221693
   1 C :   -0.226590
   2 C :   -0.216632
   3 C :   -0.216191
   4 C :   -0.216579
   5 C :   -0.215564
   6 C :   -0.221904
   7 H :    0.219389
   8 H :    0.218039
   9 H :    0.217947
  10 H :    0.218587
  11 H :    0.220774
  12 Br:   -0.080629
  13 C :   -0.700297
  14 H :    0.258914
  15 H :    0.259626
  16 H :    0.259417
Sum of atomic charges:   -0.0000000

--------------------------------
MULLIKEN REDUCED ORBITAL CHARGES
--------------------------------
  0 H s       :     0.778307  s :     0.778307
  1 C s       :     3.247409  s :     3.247409
      pz      :     1.046699  p :     2.939517
      px      :     0.899987
      py      :     0.992830
      dz2     :     0.013292  d :     0.039664
      dxz     :     0.011046
      dyz     :     0.002294
      dx2y2   :     0.006194
      dxy     :     0.006838
  2 C s       :     3.245195  s :     3.245195
      pz      :     0.935343  p :     2.931812
      px      :     1.007433
      py      :     0.989037
      dz2     :     0.009783  d :     0.039625
      dxz     :     0.014472
      dyz     :     0.005705
      dx2y2   :     0.006227
      dxy     :     0.003439
  3 C s       :     3.245126  s :     3.245126
      pz      :     0.935393  p :     2.931461
      px      :     1.006468
      py      :     0.989600
      dz2     :     0.009797  d :     0.039604
      dxz     :     0.014442
      dyz     :     0.005700
      dx2y2   :     0.006253
      dxy     :     0.003412
  4 C s       :     3.245352  s :     3.245352
      pz      :     1.042446  p :     2.931612
      px      :     0.899908
      py      :     0.989259
      dz2     :     0.013306  d :     0.039614
      dxz     :     0.011018
      dyz     :     0.002284
      dx2y2   :     0.006179
      dxy     :     0.006827
  5 C s       :     3.244883  s :     3.244883
      pz      :     0.935868  p :     2.931076
      px      :     1.006056
      py      :     0.989153
      dz2     :     0.009787  d :     0.039605
      dxz     :     0.014453
      dyz     :     0.005686
      dx2y2   :     0.006223
      dxy     :     0.003457
  6 C s       :     3.246433  s :     3.246433
      pz      :     0.935697  p :     2.935816
      px      :     1.009579
      py      :     0.990539
      dz2     :     0.009806  d :     0.039655
      dxz     :     0.014443
      dyz     :     0.005730
      dx2y2   :     0.006253
      dxy     :     0.003424
  7 H s       :     0.780611  s :     0.780611
  8 H s       :     0.781961  s :     0.781961
  9 H s       :     0.782053  s :     0.782053
 10 H s       :     0.781413  s :     0.781413
 11 H s       :     0.779226  s :     0.779226
 12 Brs       :     7.958277  s :     7.958277
      pz      :     5.975058  p :    17.078809
      px      :     5.973144
      py      :     5.130608
      dz2     :     2.007153  d :    10.043543
      dxz     :     2.000155
      dyz     :     2.007455
      dx2y2   :     2.021181
      dxy     :     2.007599
 13 C s       :     3.445695  s :     3.445695
      pz      :     1.177135  p :     3.217128
      px      :     1.177323
      py      :     0.862670
      dz2     :     0.007092  d :     0.037474
      dxz     :     0.007661
      dyz     :     0.007396
      dx2y2   :     0.009308
      dxy     :     0.006018
 14 H s       :     0.741086  s :     0.741086
 15 H s       :     0.740374  s :     0.740374
 16 H s       :     0.740583  s :     0.740583


                     *******************************
                     * LOEWDIN POPULATION ANALYSIS *
                     *******************************

----------------------
LOEWDIN ATOMIC CHARGES
----------------------
   0 H :    0.136522
   1 C :   -0.139693
   2 C :   -0.135399
   3 C :   -0.134598
   4 C :   -0.134282
   5 C :   -0.134840
   6 C :   -0.137686
   7 H :    0.135834
   8 H :    0.135196
   9 H :    0.135122
  10 H :    0.135484
  11 H :    0.136304
  12 Br:   -0.005482
  13 C :   -0.414670
  14 H :    0.140527
  15 H :    0.140881
  16 H :    0.140775

-------------------------------
LOEWDIN REDUCED ORBITAL CHARGES
-------------------------------
  0 H s       :     0.863478  s :     0.863478
  1 C s       :     2.894760  s :     2.894760
      pz      :     1.080112  p :     3.155435
      px      :     1.090182
      py      :     0.985141
      dz2     :     0.027377  d :     0.089498
      dxz     :     0.028853
      dyz     :     0.003390
      dx2y2   :     0.015653
      dxy     :     0.014225
  2 C s       :     2.894296  s :     2.894296
      pz      :     1.087534  p :     3.151582
      px      :     1.081976
      py      :     0.982072
      dz2     :     0.025566  d :     0.089521
      dxz     :     0.034789
      dyz     :     0.011491
      dx2y2   :     0.011527
      dxy     :     0.006147
  3 C s       :     2.894067  s :     2.894067
      pz      :     1.087598  p :     3.151060
      px      :     1.081373
      py      :     0.982089
      dz2     :     0.025617  d :     0.089471
      dxz     :     0.034746
      dyz     :     0.011502
      dx2y2   :     0.011547
      dxy     :     0.006059
  4 C s       :     2.894083  s :     2.894083
      pz      :     1.078835  p :     3.150723
      px      :     1.090204
      py      :     0.981684
      dz2     :     0.027427  d :     0.089475
      dxz     :     0.028821
      dyz     :     0.003403
      dx2y2   :     0.015661
      dxy     :     0.014163
  5 C s       :     2.894126  s :     2.894126
      pz      :     1.087551  p :     3.151221
      px      :     1.081722
      py      :     0.981949
      dz2     :     0.025585  d :     0.089492
      dxz     :     0.034776
      dyz     :     0.011482
      dx2y2   :     0.011517
      dxy     :     0.006131
  6 C s       :     2.894592  s :     2.894592
      pz      :     1.087778  p :     3.153571
      px      :     1.082343
      py      :     0.983451
      dz2     :     0.025611  d :     0.089522
      dxz     :     0.034716
      dyz     :     0.011558
      dx2y2   :     0.011545
      dxy     :     0.006093
  7 H s       :     0.864166  s :     0.864166
  8 H s       :     0.864804  s :     0.864804
  9 H s       :     0.864878  s :     0.864878
 10 H s       :     0.864516  s :     0.864516
 11 H s       :     0.863696  s :     0.863696
 12 Brs       :     7.842641  s :     7.842641
      pz      :     5.960732  p :    17.099654
      px      :     5.958884
      py      :     5.180039
      dz2     :     2.010435  d :    10.063186
      dxz     :     2.000193
      dyz     :     2.010710
      dx2y2   :     2.030947
      dxy     :     2.010902
 13 C s       :     3.023990  s :     3.023990
      pz      :     1.178403  p :     3.324965
      px      :     1.178340
      py      :     0.968222
      dz2     :     0.011872  d :     0.065715
      dxz     :     0.012109
      dyz     :     0.013477
      dx2y2   :     0.017137
      dxy     :     0.011119
 14 H s       :     0.859473  s :     0.859473
 15 H s       :     0.859119  s :     0.859119
 16 H s       :     0.859225  s :     0.859225


                      *****************************
                      * MAYER POPULATION ANALYSIS *
                      *****************************

  NA   - Mulliken gross atomic population
  ZA   - Total nuclear charge
  QA   - Mulliken gross atomic charge
  VA   - Mayer's total valence
  BVA  - Mayer's bonded valence
  FA   - Mayer's free valence

  ATOM       NA         ZA         QA         VA         BVA        FA
  0 H      0.7783     1.0000     0.2217     0.9115     0.9115     0.0000
  1 C      6.2266     6.0000    -0.2266     3.8200     3.8200    -0.0000
  2 C      6.2166     6.0000    -0.2166     3.8208     3.8208    -0.0000
  3 C      6.2162     6.0000    -0.2162     3.8212     3.8212    -0.0000
  4 C      6.2166     6.0000    -0.2166     3.8214     3.8214    -0.0000
  5 C      6.2156     6.0000    -0.2156     3.8210     3.8210    -0.0000
  6 C      6.2219     6.0000    -0.2219     3.8204     3.8204    -0.0000
  7 H      0.7806     1.0000     0.2194     0.9121     0.9121    -0.0000
  8 H      0.7820     1.0000     0.2180     0.9124     0.9124    -0.0000
  9 H      0.7821     1.0000     0.2179     0.9124     0.9124     0.0000
 10 H      0.7814     1.0000     0.2186     0.9123     0.9123    -0.0000
 11 H      0.7792     1.0000     0.2208     0.9117     0.9117     0.0000
 12 Br    35.0806    35.0000    -0.0806     1.0382     1.0382    -0.0000
 13 C      6.7003     6.0000    -0.7003     3.7196     3.7196    -0.0000
 14 H      0.7411     1.0000     0.2589     0.8866     0.8866    -0.0000
 15 H      0.7404     1.0000     0.2596     0.8863     0.8863     0.0000
 16 H      0.7406     1.0000     0.2594     0.8864     0.8864     0.0000

  Mayer bond orders larger than 0.100000
B(  0-H ,  1-C ) :   0.9195 B(  1-C ,  2-C ) :   1.4241 B(  1-C ,  6-C ) :   1.4243 
B(  2-C ,  3-C ) :   1.4266 B(  2-C ,  7-H ) :   0.9203 B(  3-C ,  4-C ) :   1.4257 
B(  3-C ,  8-H ) :   0.9206 B(  4-C ,  5-C ) :   1.4268 B(  4-C ,  9-H ) :   0.9206 
B(  5-C ,  6-C ) :   1.4249 B(  5-C , 10-H ) :   0.9205 B(  6-C , 11-H ) :   0.9198 
B( 12-Br, 13-C ) :   1.0204 B( 13-C , 14-H ) :   0.8988 B( 13-C , 15-H ) :   0.8985 
B( 13-C , 16-H ) :   0.8986 

-------
TIMINGS
-------

Total SCF time: 0 days 0 hours 1 min 50 sec 

Total time                  ....     110.199 sec
Sum of individual times     ....     102.658 sec  ( 93.2%)

Fock matrix formation       ....      88.205 sec  ( 80.0%)
  Split-RI-J                ....       8.865 sec  ( 10.1% of F)
  Chain of spheres X        ....      38.152 sec  ( 43.3% of F)
  XC integration            ....      23.375 sec  ( 26.5% of F)
    Basis function eval.    ....       3.801 sec  ( 16.3% of XC)
    Density eval.           ....       2.210 sec  (  9.5% of XC)
    XC-Functional eval.     ....       1.730 sec  (  7.4% of XC)
    XC-Potential eval.      ....       1.399 sec  (  6.0% of XC)
Diagonalization             ....       1.303 sec  (  1.2%)
Density matrix formation    ....       0.241 sec  (  0.2%)
Population analysis         ....       1.276 sec  (  1.2%)
Initial guess               ....       0.032 sec  (  0.0%)
Orbital Transformation      ....       0.000 sec  (  0.0%)
Orbital Orthonormalization  ....       0.000 sec  (  0.0%)
DIIS solution               ....       2.504 sec  (  2.3%)
SOSCF solution              ....       1.770 sec  (  1.6%)
Grid generation             ....       7.327 sec  (  6.6%)

Maximum memory used throughout the entire SCF-calculation: 58.0 MB


-------------------------------------------------------------------------------
                          DFT DISPERSION CORRECTION                            
                                                                               
                              DFTD3 V3.1  Rev 1                                
                          USING Becke-Johnson damping                          
-------------------------------------------------------------------------------
The PBEh-3c composite method is recognized
Using three-body term ABC
Active option DFTDOPT                   ...         4   

molecular C6(AA) [au] = 3999.946972 


            DFT-D V3
 parameters
 s6 scaling factor         :     1.0000 
 a1 scaling factor         :     0.4860 
 s8 scaling factor         :     0.0000 
 a2 scaling factor         :     4.5000 
 Damping factor alpha9(ATM):    16.0000 
 ad hoc parameters k1-k3   :    16.0000     1.3333    -4.0000 

 Edisp/kcal,au: -5.469342831840  -0.008715951670 
 E6   /kcal   :  -5.500432437 
 E8   /kcal   :  -0.000000000 
 E6(ABC)      :   0.031089606 
 % E8         :   0.000000000 
 % E6(ABC)    :  -0.568434026 

-------------------------   ----------------
Dispersion correction           -0.008715952
-------------------------   ----------------

------------------   -----------------
gCP correction             0.026265309
------------------   -----------------

-------------------------   --------------------
FINAL SINGLE POINT ENERGY     -2844.555676522298
-------------------------   --------------------


                            ***************************************
                            *     ORCA property calculations      *
                            ***************************************

                                    ---------------------
                                    Active property flags
                                    ---------------------
   (+) Dipole Moment


------------------------------------------------------------------------------
                       ORCA ELECTRIC PROPERTIES CALCULATION
------------------------------------------------------------------------------

Dipole Moment Calculation                       ... on
Quadrupole Moment Calculation                   ... off
Polarizability Calculation                      ... off
GBWName                                         ... pbeh-3c.gbw
Electron density                                ... pbeh-3c.scfp
The origin for moment calculation is the CENTER OF MASS  = (-0.005291, -3.592679  4.010360)

-------------
DIPOLE MOMENT
-------------
                                X             Y             Z
Electronic contribution:     -0.69538     -14.97534      -4.79776
Nuclear contribution   :      0.74655      14.31773       4.85433
                        -----------------------------------------
Total Dipole Moment    :      0.05118      -0.65761       0.05657
                        -----------------------------------------
Magnitude (a.u.)       :      0.66202
Magnitude (Debye)      :      1.68271



--------------------
Rotational spectrum 
--------------------
 
Rotational constants in cm-1:     0.093485     0.021629     0.021627 
Rotational constants in MHz :  2802.621214   648.432623   648.355064 

 Dipole components along the rotational axes: 
x,y,z [a.u.] :    -0.632946     0.190141    -0.038606 
x,y,z [Debye]:    -1.608820     0.483299    -0.098128 

 

Timings for individual modules:

Sum of individual times         ...      113.045 sec (=   1.884 min)
GTO integral calculation        ...        2.341 sec (=   0.039 min)   2.1 %
SCF iterations                  ...      110.704 sec (=   1.845 min)  97.9 %
                             ****ORCA TERMINATED NORMALLY****
TOTAL RUN TIME: 0 days 0 hours 1 minutes 55 seconds 234 msec
