
                                 *****************
                                 * O   R   C   A *
                                 *****************

                                            #,                                       
                                            ###                                      
                                            ####                                     
                                            #####                                    
                                            ######                                   
                                           ########,                                 
                                     ,,################,,,,,                         
                               ,,#################################,,                 
                          ,,##########################################,,             
                       ,#########################################, ''#####,          
                    ,#############################################,,   '####,        
                  ,##################################################,,,,####,       
                ,###########''''           ''''###############################       
              ,#####''   ,,,,##########,,,,          '''####'''          '####       
            ,##' ,,,,###########################,,,                        '##       
           ' ,,###''''                  '''############,,,                           
         ,,##''                                '''############,,,,        ,,,,,,###''
      ,#''                                            '''#######################'''  
     '                                                          ''''####''''         
             ,#######,   #######,   ,#######,      ##                                
            ,#'     '#,  ##    ##  ,#'     '#,    #''#        ######   ,####,        
            ##       ##  ##   ,#'  ##            #'  '#       #        #'  '#        
            ##       ##  #######   ##           ,######,      #####,   #    #        
            '#,     ,#'  ##    ##  '#,     ,#' ,#      #,         ##   #,  ,#        
             '#######'   ##     ##  '#######'  #'      '#     #####' # '####'        



                  #######################################################
                  #                        -***-                        #
                  #          Department of theory and spectroscopy      #
                  #    Directorship and core code : Frank Neese         #
                  #        Max Planck Institute fuer Kohlenforschung    #
                  #                Kaiser Wilhelm Platz 1               #
                  #                 D-45470 Muelheim/Ruhr               #
                  #                      Germany                        #
                  #                                                     #
                  #                  All rights reserved                #
                  #                        -***-                        #
                  #######################################################


                         Program Version 5.0.3 -  RELEASE  -


 With contributions from (in alphabetic order):
   Daniel Aravena         : Magnetic Suceptibility
   Michael Atanasov       : Ab Initio Ligand Field Theory (pilot matlab implementation)
   Alexander A. Auer      : GIAO ZORA, VPT2 properties, NMR spectrum
   Ute Becker             : Parallelization
   Giovanni Bistoni       : ED, misc. LED, open-shell LED, HFLD
   Martin Brehm           : Molecular dynamics
   Dmytro Bykov           : SCF Hessian
   Vijay G. Chilkuri      : MRCI spin determinant printing, contributions to CSF-ICE
   Dipayan Datta          : RHF DLPNO-CCSD density
   Achintya Kumar Dutta   : EOM-CC, STEOM-CC
   Dmitry Ganyushin       : Spin-Orbit,Spin-Spin,Magnetic field MRCI
   Miquel Garcia          : C-PCM and meta-GGA Hessian, CC/C-PCM, Gaussian charge scheme
   Yang Guo               : DLPNO-NEVPT2, F12-NEVPT2, CIM, IAO-localization
   Andreas Hansen         : Spin unrestricted coupled pair/coupled cluster methods
   Benjamin Helmich-Paris : MC-RPA, TRAH-SCF, COSX integrals
   Lee Huntington         : MR-EOM, pCC
   Robert Izsak           : Overlap fitted RIJCOSX, COSX-SCS-MP3, EOM
   Marcus Kettner         : VPT2
   Christian Kollmar      : KDIIS, OOCD, Brueckner-CCSD(T), CCSD density, CASPT2, CASPT2-K
   Simone Kossmann        : Meta GGA functionals, TD-DFT gradient, OOMP2, MP2 Hessian
   Martin Krupicka        : Initial AUTO-CI
   Lucas Lang             : DCDCAS
   Marvin Lechner         : AUTO-CI (C++ implementation), FIC-MRCC
   Dagmar Lenk            : GEPOL surface, SMD
   Dimitrios Liakos       : Extrapolation schemes; Compound Job, initial MDCI parallelization
   Dimitrios Manganas     : Further ROCIS development; embedding schemes
   Dimitrios Pantazis     : SARC Basis sets
   Anastasios Papadopoulos: AUTO-CI, single reference methods and gradients
   Taras Petrenko         : DFT Hessian,TD-DFT gradient, ASA, ECA, R-Raman, ABS, FL, XAS/XES, NRVS
   Peter Pinski           : DLPNO-MP2, DLPNO-MP2 Gradient
   Christoph Reimann      : Effective Core Potentials
   Marius Retegan         : Local ZFS, SOC
   Christoph Riplinger    : Optimizer, TS searches, QM/MM, DLPNO-CCSD(T), (RO)-DLPNO pert. Triples
   Tobias Risthaus        : Range-separated hybrids, TD-DFT gradient, RPA, STAB
   Michael Roemelt        : Original ROCIS implementation
   Masaaki Saitow         : Open-shell DLPNO-CCSD energy and density
   Barbara Sandhoefer     : DKH picture change effects
   Avijit Sen             : IP-ROCIS
   Kantharuban Sivalingam : CASSCF convergence, NEVPT2, FIC-MRCI
   Bernardo de Souza      : ESD, SOC TD-DFT
   Georgi Stoychev        : AutoAux, RI-MP2 NMR, DLPNO-MP2 response
   Willem Van den Heuvel  : Paramagnetic NMR
   Boris Wezisla          : Elementary symmetry handling
   Frank Wennmohs         : Technical directorship


 We gratefully acknowledge several colleagues who have allowed us to
 interface, adapt or use parts of their codes:
   Stefan Grimme, W. Hujo, H. Kruse, P. Pracht,  : VdW corrections, initial TS optimization,
                  C. Bannwarth, S. Ehlert          DFT functionals, gCP, sTDA/sTD-DF
   Ed Valeev, F. Pavosevic, A. Kumar             : LibInt (2-el integral package), F12 methods
   Garnet Chan, S. Sharma, J. Yang, R. Olivares  : DMRG
   Ulf Ekstrom                                   : XCFun DFT Library
   Mihaly Kallay                                 : mrcc  (arbitrary order and MRCC methods)
   Jiri Pittner, Ondrej Demel                    : Mk-CCSD
   Frank Weinhold                                : gennbo (NPA and NBO analysis)
   Christopher J. Cramer and Donald G. Truhlar   : smd solvation model
   Lars Goerigk                                  : TD-DFT with DH, B97 family of functionals
   V. Asgeirsson, H. Jonsson                     : NEB implementation
   FAccTs GmbH                                   : IRC, NEB, NEB-TS, DLPNO-Multilevel, CI-OPT
                                                   MM, QMMM, 2- and 3-layer-ONIOM, Crystal-QMMM,
                                                   LR-CPCM, SF, NACMEs, symmetry and pop. for TD-DFT,
                                                   nearIR, NL-DFT gradient (VV10), updates on ESD,
                                                   ML-optimized integration grids
   S Lehtola, MJT Oliveira, MAL Marques          : LibXC Library
   Liviu Ungur et al                             : ANISO software


 Your calculation uses the libint2 library for the computation of 2-el integrals
 For citations please refer to: http://libint.valeyev.net

 Your ORCA version has been built with support for libXC version: 5.1.0
 For citations please refer to: https://tddft.org/programs/libxc/

 This ORCA versions uses:
   CBLAS   interface :  Fast vector & matrix operations
   LAPACKE interface :  Fast linear algebra routines
   SCALAPACK package :  Parallel linear algebra routines
   Shared memory     :  Shared parallel matrices
   BLAS/LAPACK       :  OpenBLAS 0.3.15  USE64BITINT DYNAMIC_ARCH NO_AFFINITY Haswell SINGLE_THREADED
        Core in use  :  Haswell
   Copyright (c) 2011-2014, The OpenBLAS Project




***************************************
The coordinates will be read from file: E18.xyz
***************************************


Your calculation utilizes the geometrical counterpoise correction gCP
Please cite in your paper:
H.Kruse, S. Grimme J.Chem.Phys., 136, (2012), 154101 
   

Your calculation utilizes the atom-pairwise dispersion correction
with the Becke-Johnson damping scheme (D3BJ)
Cite in your paper:
S.Grimme, S.Ehrlich, L.Goerigk, J Comput Chem, (2011), 32, 1456–1465 
S.Grimme, J.Antony, S.Ehrlich and H.Krieg, J.Chem.Phys., 132, (2010), 154104 
   

Your calculation employs the composite approach PBEh-3c.
Please cite in your paper:
S. Grimme, J. G. Brandenburg, C. Bannwarth, A. Hansen J.Chem.Phys., 143, (2015), 054107 
   

================================================================================

----- Orbital basis set information -----
Your calculation utilizes the basis: def2-mSVP

----- AuxJ basis set information -----
Your calculation utilizes the auxiliary basis: def2/J
   F. Weigend, Phys. Chem. Chem. Phys. 8, 1057 (2006).

================================================================================
                                        WARNINGS
                       Please study these warnings very carefully!
================================================================================


INFO   : the flag for use of the SHARK integral package has been found!

================================================================================
                                       INPUT FILE
================================================================================
NAME = pbeh-3c.inp
|  1> ! PBEh-3c def2/J TightSCF DefGrid3
|  2> 
|  3> %maxcore 60000
|  4> 
|  5> %pal
|  6> nprocs 4
|  7> end
|  8> 
|  9> *xyzfile 0 1 E18.xyz
| 10> 
| 11>                          ****END OF INPUT****
================================================================================

                       ****************************
                       * Single Point Calculation *
                       ****************************

---------------------------------
CARTESIAN COORDINATES (ANGSTROEM)
---------------------------------
  C     -0.962990    0.080075    0.000000
  C      0.530590    0.251422    0.000000
  O      1.169695   -0.948012    0.000000
  O      1.125119    1.298672    0.000000
  H      2.122355   -0.763408    0.000000
  H     -1.440600    1.056086    0.000000
  H     -1.272084   -0.487418    0.879729
  H     -1.272084   -0.487418   -0.879729

----------------------------
CARTESIAN COORDINATES (A.U.)
----------------------------
  NO LB      ZA    FRAG     MASS         X           Y           Z
   0 C     6.0000    0    12.011   -1.819787    0.151320    0.000000
   1 C     6.0000    0    12.011    1.002669    0.475120    0.000000
   2 O     8.0000    0    15.999    2.210403   -1.791482    0.000000
   3 O     8.0000    0    15.999    2.126166    2.454134    0.000000
   4 H     1.0000    0     1.008    4.010669   -1.442633    0.000000
   5 H     1.0000    0     1.008   -2.722339    1.995714    0.000000
   6 H     1.0000    0     1.008   -2.403891   -0.921086    1.662447
   7 H     1.0000    0     1.008   -2.403891   -0.921086   -1.662447

--------------------------------
INTERNAL COORDINATES (ANGSTROEM)
--------------------------------
 C      0   0   0     0.000000000000     0.00000000     0.00000000
 C      1   0   0     1.503376096849     0.00000000     0.00000000
 O      2   1   0     1.359079736062   111.50590710     0.00000000
 O      2   1   3     1.204240594438   126.12832888   180.00000085
 H      3   2   1     0.970380811484   107.08374364   180.00000000
 H      1   2   3     1.086604557946   109.53024968   180.00000085
 H      1   2   3     1.091563484098   109.91197386    59.00138911
 H      1   2   3     1.091563484098   109.91197386   300.99861089

---------------------------
INTERNAL COORDINATES (A.U.)
---------------------------
 C      0   0   0     0.000000000000     0.00000000     0.00000000
 C      1   0   0     2.840969099328     0.00000000     0.00000000
 O      2   1   0     2.568288495320   111.50590710     0.00000000
 O      2   1   3     2.275684922838   126.12832888   180.00000085
 H      3   2   1     1.833753979316   107.08374364   180.00000000
 H      1   2   3     2.053385030389   109.53024968   180.00000085
 H      1   2   3     2.062756042734   109.91197386    59.00138911
 H      1   2   3     2.062756042734   109.91197386   300.99861089

---------------------
BASIS SET INFORMATION
---------------------
There are 3 groups of distinct atoms

 Group   1 Type C   : 8s4p1d contracted to 4s2p1d pattern {5111/31/1}
 Group   2 Type O   : 8s4p1d contracted to 4s2p1d pattern {5111/31/1}
 Group   3 Type H   : 4s contracted to 2s pattern {31}

Atom   0C    basis set group =>   1
Atom   1C    basis set group =>   1
Atom   2O    basis set group =>   2
Atom   3O    basis set group =>   2
Atom   4H    basis set group =>   3
Atom   5H    basis set group =>   3
Atom   6H    basis set group =>   3
Atom   7H    basis set group =>   3
---------------------------------
AUXILIARY/J BASIS SET INFORMATION
---------------------------------
There are 3 groups of distinct atoms

 Group   1 Type C   : 12s5p4d2f1g contracted to 6s4p3d1f1g pattern {711111/2111/211/2/1}
 Group   2 Type O   : 12s5p4d2f1g contracted to 6s4p3d1f1g pattern {711111/2111/211/2/1}
 Group   3 Type H   : 5s2p1d contracted to 3s1p1d pattern {311/2/1}

Atom   0C    basis set group =>   1
Atom   1C    basis set group =>   1
Atom   2O    basis set group =>   2
Atom   3O    basis set group =>   2
Atom   4H    basis set group =>   3
Atom   5H    basis set group =>   3
Atom   6H    basis set group =>   3
Atom   7H    basis set group =>   3


           ************************************************************
           *        Program running with 4 parallel MPI-processes     *
           *              working on a common directory               *
           ************************************************************
------------------------------------------------------------------------------
                           ORCA GTO INTEGRAL CALCULATION
                           -- RI-GTO INTEGRALS CHOSEN --
------------------------------------------------------------------------------
------------------------------------------------------------------------------
                   ___                                                        
                  /   \      - P O W E R E D   B Y -                         
                 /     \                                                     
                 |  |  |   _    _      __       _____    __    __             
                 |  |  |  | |  | |    /  \     |  _  \  |  |  /  |          
                  \  \/   | |  | |   /    \    | | | |  |  | /  /          
                 / \  \   | |__| |  /  /\  \   | |_| |  |  |/  /          
                |  |  |   |  __  | /  /__\  \  |    /   |      \           
                |  |  |   | |  | | |   __   |  |    \   |  |\   \          
                \     /   | |  | | |  |  |  |  | |\  \  |  | \   \       
                 \___/    |_|  |_| |__|  |__|  |_| \__\ |__|  \__/        
                                                                              
                      - O R C A' S   B I G   F R I E N D -                    
                                      &                                       
                       - I N T E G R A L  F E E D E R -                       
                                                                              
 v1 FN, 2020, v2 2021                                                         
------------------------------------------------------------------------------


Reading SHARK input file pbeh-3c.SHARKINP.tmp ... ok
----------------------
SHARK INTEGRAL PACKAGE
----------------------

Number of atoms                             ...      8
Number of basis functions                   ...     68
Number of shells                            ...     36
Maximum angular momentum                    ...      2
Integral batch strategy                     ... SHARK/LIBINT Hybrid
RI-J (if used) integral strategy            ... SPLIT-RIJ (Revised 2003 algorithm where possible)
Printlevel                                  ...      1
Contraction scheme used                     ... SEGMENTED contraction
Coulomb Range Separation                    ... NOT USED
Exchange Range Separation                   ... NOT USED
Finite Nucleus Model                        ... NOT USED
Auxiliary Coulomb fitting basis             ... AVAILABLE
   # of basis functions in Aux-J            ...    240
   # of shells in Aux-J                     ...     80
   Maximum angular momentum in Aux-J        ...      4
Auxiliary J/K fitting basis                 ... NOT available
Auxiliary Correlation fitting basis         ... NOT available
Auxiliary 'external' fitting basis          ... NOT available
Integral threshold                          ...     2.500000e-11
Primitive cut-off                           ...     2.500000e-12
Primitive pair pre-selection threshold      ...     2.500000e-12

Calculating pre-screening integrals         ... done (  0.0 sec) Dimension = 36
Organizing shell pair data                  ... done (  0.1 sec)
Shell pair information
Total number of shell pairs                 ...       666
Shell pairs after pre-screening             ...       650
Total number of primitive shell pairs       ...      2410
Primitive shell pairs kept                  ...      1862
          la=0 lb=0:    284 shell pairs
          la=1 lb=0:    192 shell pairs
          la=1 lb=1:     36 shell pairs
          la=2 lb=0:     96 shell pairs
          la=2 lb=1:     32 shell pairs
          la=2 lb=2:     10 shell pairs

Calculating one electron integrals          ... done (  0.0 sec)
Calculating RI/J V-Matrix + Cholesky decomp.... done (  0.1 sec)
Calculating Nuclear repulsion               ... done (  0.0 sec) ENN=    121.031850786485 Eh

SHARK setup successfully completed in   0.8 seconds

Maximum memory used throughout the entire GTOINT-calculation: 9.4 MB


           ************************************************************
           *        Program running with 4 parallel MPI-processes     *
           *              working on a common directory               *
           ************************************************************
-------------------------------------------------------------------------------
                                 ORCA SCF
-------------------------------------------------------------------------------

------------
SCF SETTINGS
------------
Hamiltonian:
 Density Functional     Method          .... DFT(GTOs)
 Exchange Functional    Exchange        .... PBE
   PBE kappa parameter   XKappa         ....  1.024500
   PBE mue parameter    XMuePBE         ....  0.123457
 Correlation Functional Correlation     .... PBE
   PBE beta parameter  CBetaPBE         ....  0.030000
 LDA part of GGA corr.  LDAOpt          .... PW91-LDA
 Gradients option       PostSCFGGA      .... off
 Hybrid DFT is turned on
   Fraction HF Exchange ScalHFX         ....  0.420000
   Scaling of DF-GGA-X  ScalDFX         ....  0.580000
   Scaling of DF-GGA-C  ScalDFC         ....  1.000000
   Scaling of DF-LDA-C  ScalLDAC        ....  1.000000
   Perturbative correction              ....  0.000000
   Density functional embedding theory  .... OFF
 RI-approximation to the Coulomb term is turned on
   Number of AuxJ basis functions       .... 240
   RIJ-ON(X) (HFX calculated with O(N)) .... on
   Number of AuxJ basis functions       .... 240
   RIJ-COSX (HFX calculated with COS-X)).... on


General Settings:
 Integral files         IntName         .... pbeh-3c
 Hartree-Fock type      HFTyp           .... RHF
 Total Charge           Charge          ....    0
 Multiplicity           Mult            ....    1
 Number of Electrons    NEL             ....   32
 Basis Dimension        Dim             ....   68
 Nuclear Repulsion      ENuc            ....    121.0318507865 Eh

Convergence Acceleration:
 DIIS                   CNVDIIS         .... on
   Start iteration      DIISMaxIt       ....    12
   Startup error        DIISStart       ....  0.200000
   # of expansion vecs  DIISMaxEq       ....     5
   Bias factor          DIISBfac        ....   1.050
   Max. coefficient     DIISMaxC        ....  10.000
 Trust-Rad. Augm. Hess. CNVTRAH         .... auto
   Auto Start mean grad. ratio tolernc. ....  1.125000
   Auto Start start iteration           ....    20
   Auto Start num. interpolation iter.  ....    10
   Max. Number of Micro iterations      ....    16
   Max. Number of Macro iterations      .... Maxiter - #DIIS iter
   Number of Davidson start vectors     ....     2
   Converg. threshold I  (grad. norm)   ....   1.000e-05
   Converg. threshold II (energy diff.) ....   1.000e-08
   Grad. Scal. Fac. for Micro threshold ....   0.100
   Minimum threshold for Micro iter.    ....   0.010
   NR start threshold (gradient norm)   ....   0.001
   Initial trust radius                 ....   0.400
   Minimum AH scaling param. (alpha)    ....   1.000
   Maximum AH scaling param. (alpha)    .... 1000.000
   Orbital update algorithm             .... Taylor
   White noise on init. David. guess    .... on
   Maximum white noise                  ....   0.010
   Quad. conv. algorithm                .... NR
   COSX micro iterations for RIJONX calc.... off
 SOSCF                  CNVSOSCF        .... on
   Start iteration      SOSCFMaxIt      ....   150
   Startup grad/error   SOSCFStart      ....  0.003300
 Level Shifting         CNVShift        .... on
   Level shift para.    LevelShift      ....    0.2500
   Turn off err/grad.   ShiftErr        ....    0.0010
 Zerner damping         CNVZerner       .... off
 Static damping         CNVDamp         .... on
   Fraction old density DampFac         ....    0.7000
   Max. Damping (<1)    DampMax         ....    0.9800
   Min. Damping (>=0)   DampMin         ....    0.0000
   Turn off err/grad.   DampErr         ....    0.1000
 Fernandez-Rico         CNVRico         .... off

SCF Procedure:
 Maximum # iterations   MaxIter         ....   125
 SCF integral mode      SCFMode         .... Direct
   Integral package                     .... SHARK and LIBINT hybrid scheme
 Reset frequency        DirectResetFreq ....    20
 Integral Threshold     Thresh          ....  2.500e-11 Eh
 Primitive CutOff       TCut            ....  2.500e-12 Eh

Convergence Tolerance:
 Convergence Check Mode ConvCheckMode   .... Total+1el-Energy
 Convergence forced     ConvForced      .... 0
 Energy Change          TolE            ....  1.000e-08 Eh
 1-El. energy change                    ....  1.000e-05 Eh
 Orbital Gradient       TolG            ....  1.000e-05
 Orbital Rotation angle TolX            ....  1.000e-05
 DIIS Error             TolErr          ....  5.000e-07


Diagonalization of the overlap matrix:
Smallest eigenvalue                        ... 7.205e-03
Time for diagonalization                   ...    0.002 sec
Threshold for overlap eigenvalues          ... 1.000e-08
Number of eigenvalues below threshold      ... 0
Time for construction of square roots      ...    0.004 sec
Total time needed                          ...    0.007 sec

--------------------------------
INITIAL GUESS: MINIMAL BASIS EHT
--------------------------------
The minimal basis has 24 functions
EHT matrix was diagonalized
Basis set overlap was calculated now projecting the orbitals
Using GuessMode=FMatrix for the initial guess
C*T matrix was formed
Effective Fockian was calculated
Effective Fockian was diagonalized
Initial density was built
                      ------------------
                      INITIAL GUESS DONE
                      ------------------
-------------------
DFT GRID GENERATION
-------------------

General Integration Accuracy     IntAcc      ... 4.959
Radial Grid Type                 RadialGrid  ... OptM3 with GC (2021)
Angular Grid (max. ang.)         AngularGrid ... 6 (Lebedev-590)
Angular grid pruning method      GridPruning ... 4 (adaptive)
Weight generation scheme         WeightScheme... Becke
Basis function cutoff            BFCut       ... 1.0000e-11
Integration weight cutoff        WCut        ... 1.0000e-14
Angular grids for H and He will be reduced by one unit
Partially contracted basis set               ... off
Rotationally invariant grid construction     ... off

Total number of grid points                  ...    93440
Total number of batches                      ...     1463
Average number of points per batch           ...       63
Average number of grid points per atom       ...    11680
Time for grid setup =    1.671 sec

--------------------
COSX GRID GENERATION
--------------------

GRIDX 1
-------
General Integration Accuracy     IntAcc      ... 4.020
Radial Grid Type                 RadialGrid  ... OptM3 with GC (2021)
Angular Grid (max. ang.)         AngularGrid ... 2 (Lebedev-110)
Angular grid pruning method      GridPruning ... 4 (adaptive)
Weight generation scheme         WeightScheme... Becke
Basis function cutoff            BFCut       ... 1.0000e-11
Integration weight cutoff        WCut        ... 1.0000e-14
Angular grids for H and He will be reduced by one unit
Partially contracted basis set               ... on
Rotationally invariant grid construction     ... off

Total number of grid points                  ...    10548
Total number of batches                      ...      168
Average number of points per batch           ...       62
Average number of grid points per atom       ...     1318
UseSFitting                                  ... on

GRIDX 2
-------
General Integration Accuracy     IntAcc      ... 4.338
Radial Grid Type                 RadialGrid  ... OptM3 with GC (2021)
Angular Grid (max. ang.)         AngularGrid ... 3 (Lebedev-194)
Angular grid pruning method      GridPruning ... 4 (adaptive)
Weight generation scheme         WeightScheme... Becke
Basis function cutoff            BFCut       ... 1.0000e-11
Integration weight cutoff        WCut        ... 1.0000e-14
Angular grids for H and He will be reduced by one unit
Partially contracted basis set               ... on
Rotationally invariant grid construction     ... off

Total number of grid points                  ...    23306
Total number of batches                      ...      367
Average number of points per batch           ...       63
Average number of grid points per atom       ...     2913
UseSFitting                                  ... on

GRIDX 3
-------
General Integration Accuracy     IntAcc      ... 4.871
Radial Grid Type                 RadialGrid  ... OptM3 with GC (2021)
Angular Grid (max. ang.)         AngularGrid ... 4 (Lebedev-302)
Angular grid pruning method      GridPruning ... 4 (adaptive)
Weight generation scheme         WeightScheme... Becke
Basis function cutoff            BFCut       ... 1.0000e-11
Integration weight cutoff        WCut        ... 1.0000e-14
Angular grids for H and He will be reduced by one unit
Partially contracted basis set               ... on
Rotationally invariant grid construction     ... off

Total number of grid points                  ...    44765
Total number of batches                      ...      704
Average number of points per batch           ...       63
Average number of grid points per atom       ...     5596
UseSFitting                                  ... on

Time for X-Grid setup             =    1.248 sec

--------------
SCF ITERATIONS
--------------
ITER       Energy         Delta-E        Max-DP      RMS-DP      [F,P]     Damp
               ***  Starting incremental Fock matrix formation  ***
  0   -227.7781560101   0.000000000000 0.18734792  0.00987560  0.5365049 0.7000
  1   -228.1041193259  -0.325963315820 0.10633431  0.00539402  0.2924817 0.7000
  2   -228.2569982576  -0.152878931658 0.04758072  0.00275604  0.2066253 0.7000
                               ***Turning on DIIS***
  3   -228.3613472871  -0.104349029472 0.02825975  0.00173576  0.1453348 0.7000
  4   -228.4364800612  -0.075132774092 0.02089348  0.00126573  0.1020073 0.7000
  5   -228.4895516879  -0.053071626745 0.05080676  0.00312534  0.0715957 0.0000
  6   -228.6150760619  -0.125524373982 0.00370571  0.00019392  0.0038523 0.0000
                      *** Initiating the SOSCF procedure ***
                           *** Shutting down DIIS ***
                      *** Re-Reading the Fockian *** 
                      *** Removing any level shift *** 
ITER      Energy       Delta-E        Grad      Rot      Max-DP    RMS-DP
  7   -228.61513216  -0.0000560959  0.000593  0.000593  0.001369  0.000083
               *** Restarting incremental Fock matrix formation ***
  8   -228.61515114  -0.0000189811  0.000549  0.001299  0.001501  0.000061
  9   -228.61515238  -0.0000012400  0.000450  0.000335  0.000686  0.000039
 10   -228.61515425  -0.0000018692  0.000059  0.000057  0.000216  0.000010
 11   -228.61515427  -0.0000000259  0.000040  0.000042  0.000068  0.000003
 12   -228.61515429  -0.0000000202  0.000009  0.000014  0.000034  0.000002
                  ***Gradient check signals convergence***
              ***Rediagonalizing the Fockian in SOSCF/NRSCF***

               *****************************************************
               *                     SUCCESS                       *
               *           SCF CONVERGED AFTER  13 CYCLES          *
               *****************************************************

Old exchange energy                            =    -11.859998426 Eh
New exchange energy                            =    -11.859995235 Eh
Exchange energy change after final integration =      0.000003191 Eh
Total energy after final integration           =   -228.615151105 Eh
Final COS-X integration done in                =     1.519 sec

----------------
TOTAL SCF ENERGY
----------------

Total Energy       :         -228.61515110 Eh           -6220.93453 eV

Components:
Nuclear Repulsion  :          121.03185079 Eh            3293.44410 eV
Electronic Energy  :         -349.64700189 Eh           -9514.37862 eV
One Electron Energy:         -551.79363283 Eh          -15015.06810 eV
Two Electron Energy:          202.14663094 Eh            5500.68948 eV
Max COSX asymmetry :            0.00000100 Eh               0.00003 eV

Virial components:
Potential Energy   :         -455.65359489 Eh          -12398.96467 eV
Kinetic Energy     :          227.03844379 Eh            6178.03014 eV
Virial Ratio       :            2.00694467


DFT components:
N(Alpha)           :       15.999999778462 electrons
N(Beta)            :       15.999999778462 electrons
N(Total)           :       31.999999556923 electrons
E(X)               :      -15.793001538441 Eh       
E(C)               :       -1.416280357344 Eh       
E(XC)              :      -17.209281895786 Eh       
DFET-embed. en.    :        0.000000000000 Eh       

---------------
SCF CONVERGENCE
---------------

  Last Energy change         ...   -1.9695e-09  Tolerance :   1.0000e-08
  Last MAX-Density change    ...    7.7716e-16  Tolerance :   1.0000e-07
  Last RMS-Density change    ...    4.4444e-17  Tolerance :   5.0000e-09
  Last Orbital Gradient      ...    1.2697e-06  Tolerance :   1.0000e-05
  Last Orbital Rotation      ...    1.9535e-06  Tolerance :   1.0000e-05

             **** THE GBW FILE WAS UPDATED (pbeh-3c.gbw) ****
             **** DENSITY pbeh-3c.scfp WAS UPDATED ****
             **** ENERGY FILE WAS UPDATED (pbeh-3c.en.tmp) ****
             **** THE GBW FILE WAS UPDATED (pbeh-3c.gbw) ****
             **** DENSITY pbeh-3c.scfp WAS UPDATED ****
----------------
ORBITAL ENERGIES
----------------

  NO   OCC          E(Eh)            E(eV) 
   0   2.0000     -19.541119      -531.7409 
   1   2.0000     -19.486739      -530.2611 
   2   2.0000     -10.585932      -288.0579 
   3   2.0000     -10.451278      -284.3937 
   4   2.0000      -1.218965       -33.1697 
   5   2.0000      -1.125173       -30.6175 
   6   2.0000      -0.848658       -23.0932 
   7   2.0000      -0.684791       -18.6341 
   8   2.0000      -0.560782       -15.2597 
   9   2.0000      -0.547710       -14.9039 
  10   2.0000      -0.533273       -14.5111 
  11   2.0000      -0.470551       -12.8043 
  12   2.0000      -0.457593       -12.4517 
  13   2.0000      -0.451463       -12.2849 
  14   2.0000      -0.377812       -10.2808 
  15   2.0000      -0.337257        -9.1772 
  16   0.0000       0.044914         1.2222 
  17   0.0000       0.128257         3.4901 
  18   0.0000       0.166033         4.5180 
  19   0.0000       0.204692         5.5700 
  20   0.0000       0.219052         5.9607 
  21   0.0000       0.236849         6.4450 
  22   0.0000       0.322165         8.7666 
  23   0.0000       0.368217        10.0197 
  24   0.0000       0.504764        13.7353 
  25   0.0000       0.536883        14.6093 
  26   0.0000       0.569733        15.5032 
  27   0.0000       0.575870        15.6702 
  28   0.0000       0.587004        15.9732 
  29   0.0000       0.703953        19.1555 
  30   0.0000       0.792782        21.5727 
  31   0.0000       0.882762        24.0212 
  32   0.0000       0.943959        25.6864 
  33   0.0000       0.967987        26.3403 
  34   0.0000       1.015124        27.6229 
  35   0.0000       1.034781        28.1578 
  36   0.0000       1.041719        28.3466 
  37   0.0000       1.098043        29.8793 
  38   0.0000       1.148111        31.2417 
  39   0.0000       1.160313        31.5737 
  40   0.0000       1.199187        32.6315 
  41   0.0000       1.393470        37.9183 
  42   0.0000       1.425206        38.7818 
  43   0.0000       1.453297        39.5462 
  44   0.0000       1.700281        46.2670 
  45   0.0000       1.774005        48.2731 
  46   0.0000       1.774725        48.2927 
  47   0.0000       1.840420        50.0804 
  48   0.0000       1.859496        50.5994 
  49   0.0000       1.942447        52.8567 
  50   0.0000       1.968259        53.5590 
  51   0.0000       2.025899        55.1275 
  52   0.0000       2.065169        56.1961 
  53   0.0000       2.119657        57.6788 
  54   0.0000       2.254679        61.3529 
  55   0.0000       2.273379        61.8618 
  56   0.0000       2.367819        64.4316 
  57   0.0000       2.511738        68.3479 
  58   0.0000       2.547609        69.3240 
  59   0.0000       2.716874        73.9299 
  60   0.0000       2.755600        74.9837 
  61   0.0000       2.893446        78.7347 
  62   0.0000       2.995328        81.5070 
  63   0.0000       3.159417        85.9721 
  64   0.0000      13.639682       371.1546 
  65   0.0000      14.044033       382.1576 
  66   0.0000      25.526557       694.6129 
  67   0.0000      25.698591       699.2942 

                    ********************************
                    * MULLIKEN POPULATION ANALYSIS *
                    ********************************

-----------------------
MULLIKEN ATOMIC CHARGES
-----------------------
   0 C :   -0.740218
   1 C :    0.507177
   2 O :   -0.590466
   3 O :   -0.384740
   4 H :    0.441664
   5 H :    0.258280
   6 H :    0.254151
   7 H :    0.254151
Sum of atomic charges:    0.0000000

--------------------------------
MULLIKEN REDUCED ORBITAL CHARGES
--------------------------------
  0 C s       :     3.411492  s :     3.411492
      pz      :     1.163531  p :     3.295210
      px      :     0.951903
      py      :     1.179776
      dz2     :     0.007178  d :     0.033516
      dxz     :     0.003231
      dyz     :     0.008234
      dx2y2   :     0.008893
      dxy     :     0.005980
  1 C s       :     2.971077  s :     2.971077
      pz      :     0.735365  p :     2.386156
      px      :     0.889782
      py      :     0.761009
      dz2     :     0.006925  d :     0.135590
      dxz     :     0.009419
      dyz     :     0.026746
      dx2y2   :     0.048354
      dxy     :     0.044146
  2 O s       :     3.805561  s :     3.805561
      pz      :     1.819771  p :     4.755012
      px      :     1.360240
      py      :     1.575001
      dz2     :     0.004919  d :     0.029893
      dxz     :     0.000180
      dyz     :     0.005210
      dx2y2   :     0.012778
      dxy     :     0.006806
  3 O s       :     3.753767  s :     3.753767
      pz      :     1.417353  p :     4.599998
      px      :     1.689083
      py      :     1.493562
      dz2     :     0.002694  d :     0.030975
      dxz     :     0.002865
      dyz     :     0.009363
      dx2y2   :     0.007856
      dxy     :     0.008197
  4 H s       :     0.558336  s :     0.558336
  5 H s       :     0.741720  s :     0.741720
  6 H s       :     0.745849  s :     0.745849
  7 H s       :     0.745849  s :     0.745849


                     *******************************
                     * LOEWDIN POPULATION ANALYSIS *
                     *******************************

----------------------
LOEWDIN ATOMIC CHARGES
----------------------
   0 C :   -0.391342
   1 C :    0.131529
   2 O :   -0.313497
   3 O :   -0.225360
   4 H :    0.331830
   5 H :    0.152857
   6 H :    0.156992
   7 H :    0.156992

-------------------------------
LOEWDIN REDUCED ORBITAL CHARGES
-------------------------------
  0 C s       :     2.965004  s :     2.965004
      pz      :     1.145997  p :     3.363608
      px      :     1.069102
      py      :     1.148509
      dz2     :     0.012817  d :     0.062730
      dxz     :     0.006922
      dyz     :     0.012832
      dx2y2   :     0.018254
      dxy     :     0.011905
  1 C s       :     2.837853  s :     2.837853
      pz      :     0.746522  p :     2.727151
      px      :     1.018051
      py      :     0.962578
      dz2     :     0.016939  d :     0.303467
      dxz     :     0.017311
      dyz     :     0.054768
      dx2y2   :     0.115796
      dxy     :     0.098652
  2 O s       :     3.509366  s :     3.509366
      pz      :     1.798261  p :     4.751612
      px      :     1.356196
      py      :     1.597155
      dz2     :     0.007682  d :     0.052518
      dxz     :     0.001036
      dyz     :     0.006902
      dx2y2   :     0.022543
      dxy     :     0.014356
  3 O s       :     3.518528  s :     3.518528
      pz      :     1.402042  p :     4.649590
      px      :     1.700443
      py      :     1.547105
      dz2     :     0.006672  d :     0.057243
      dxz     :     0.003544
      dyz     :     0.011922
      dx2y2   :     0.015792
      dxy     :     0.019313
  4 H s       :     0.668170  s :     0.668170
  5 H s       :     0.847143  s :     0.847143
  6 H s       :     0.843008  s :     0.843008
  7 H s       :     0.843008  s :     0.843008


                      *****************************
                      * MAYER POPULATION ANALYSIS *
                      *****************************

  NA   - Mulliken gross atomic population
  ZA   - Total nuclear charge
  QA   - Mulliken gross atomic charge
  VA   - Mayer's total valence
  BVA  - Mayer's bonded valence
  FA   - Mayer's free valence

  ATOM       NA         ZA         QA         VA         BVA        FA
  0 C      6.7402     6.0000    -0.7402     3.6668     3.6668    -0.0000
  1 C      5.4928     6.0000     0.5072     4.1200     4.1200     0.0000
  2 O      8.5905     8.0000    -0.5905     1.9762     1.9762     0.0000
  3 O      8.3847     8.0000    -0.3847     2.2163     2.2163     0.0000
  4 H      0.5583     1.0000     0.4417     0.7958     0.7958    -0.0000
  5 H      0.7417     1.0000     0.2583     0.9011     0.9011    -0.0000
  6 H      0.7458     1.0000     0.2542     0.9006     0.9006    -0.0000
  7 H      0.7458     1.0000     0.2542     0.9006     0.9006     0.0000

  Mayer bond orders larger than 0.100000
B(  0-C ,  1-C ) :   0.9360 B(  0-C ,  5-H ) :   0.9169 B(  0-C ,  6-H ) :   0.9050 
B(  0-C ,  7-H ) :   0.9050 B(  1-C ,  2-O ) :   1.1303 B(  1-C ,  3-O ) :   2.0784 
B(  2-O ,  4-H ) :   0.7615 

-------
TIMINGS
-------

Total SCF time: 0 days 0 hours 0 min 52 sec 

Total time                  ....      52.413 sec
Sum of individual times     ....      46.129 sec  ( 88.0%)

Fock matrix formation       ....      40.065 sec  ( 76.4%)
  Split-RI-J                ....       5.183 sec  ( 12.9% of F)
  Chain of spheres X        ....       8.130 sec  ( 20.3% of F)
  XC integration            ....      13.623 sec  ( 34.0% of F)
    Basis function eval.    ....       1.004 sec  (  7.4% of XC)
    Density eval.           ....       0.802 sec  (  5.9% of XC)
    XC-Functional eval.     ....       0.846 sec  (  6.2% of XC)
    XC-Potential eval.      ....       0.334 sec  (  2.5% of XC)
Diagonalization             ....       0.310 sec  (  0.6%)
Density matrix formation    ....       0.145 sec  (  0.3%)
Population analysis         ....       0.380 sec  (  0.7%)
Initial guess               ....       0.004 sec  (  0.0%)
Orbital Transformation      ....       0.000 sec  (  0.0%)
Orbital Orthonormalization  ....       0.000 sec  (  0.0%)
DIIS solution               ....       1.541 sec  (  2.9%)
SOSCF solution              ....       0.764 sec  (  1.5%)
Grid generation             ....       2.919 sec  (  5.6%)

Maximum memory used throughout the entire SCF-calculation: 47.0 MB


-------------------------------------------------------------------------------
                          DFT DISPERSION CORRECTION                            
                                                                               
                              DFTD3 V3.1  Rev 1                                
                          USING Becke-Johnson damping                          
-------------------------------------------------------------------------------
The PBEh-3c composite method is recognized
Using three-body term ABC
Active option DFTDOPT                   ...         4   

molecular C6(AA) [au] = 530.234125 


            DFT-D V3
 parameters
 s6 scaling factor         :     1.0000 
 a1 scaling factor         :     0.4860 
 s8 scaling factor         :     0.0000 
 a2 scaling factor         :     4.5000 
 Damping factor alpha9(ATM):    16.0000 
 ad hoc parameters k1-k3   :    16.0000     1.3333    -4.0000 

 Edisp/kcal,au: -1.449459104968  -0.002309859867 
 E6   /kcal   :  -1.451201581 
 E8   /kcal   :  -0.000000000 
 E6(ABC)      :   0.001742476 
 % E8         :   0.000000000 
 % E6(ABC)    :  -0.120215587 

-------------------------   ----------------
Dispersion correction           -0.002309860
-------------------------   ----------------

------------------   -----------------
gCP correction             0.015243234
------------------   -----------------

-------------------------   --------------------
FINAL SINGLE POINT ENERGY      -228.602217730279
-------------------------   --------------------


                            ***************************************
                            *     ORCA property calculations      *
                            ***************************************

                                    ---------------------
                                    Active property flags
                                    ---------------------
   (+) Dipole Moment


------------------------------------------------------------------------------
                       ORCA ELECTRIC PROPERTIES CALCULATION
------------------------------------------------------------------------------

Dipole Moment Calculation                       ... on
Quadrupole Moment Calculation                   ... off
Polarizability Calculation                      ... off
GBWName                                         ... pbeh-3c.gbw
Electron density                                ... pbeh-3c.scfp
The origin for moment calculation is the CENTER OF MASS  = ( 0.932838,  0.280199  0.000000)

-------------
DIPOLE MOMENT
-------------
                                X             Y             Z
Electronic contribution:      3.32484       0.60190      -0.00000
Nuclear contribution   :     -3.58041      -1.19562       0.00000
                        -----------------------------------------
Total Dipole Moment    :     -0.25557      -0.59372      -0.00000
                        -----------------------------------------
Magnitude (a.u.)       :      0.64639
Magnitude (Debye)      :      1.64299



--------------------
Rotational spectrum 
--------------------
 
Rotational constants in cm-1:     0.377731     0.315190     0.177463 
Rotational constants in MHz : 11324.097414  9449.171460  5320.219900 

 Dipole components along the rotational axes: 
x,y,z [a.u.] :     0.255569    -0.593721    -0.000000 
x,y,z [Debye]:     0.649604    -1.509118    -0.000000 

 

Timings for individual modules:

Sum of individual times         ...       53.926 sec (=   0.899 min)
GTO integral calculation        ...        1.146 sec (=   0.019 min)   2.1 %
SCF iterations                  ...       52.780 sec (=   0.880 min)  97.9 %
                             ****ORCA TERMINATED NORMALLY****
TOTAL RUN TIME: 0 days 0 hours 1 minutes 6 seconds 293 msec
