
                                 *****************
                                 * O   R   C   A *
                                 *****************

                                            #,                                       
                                            ###                                      
                                            ####                                     
                                            #####                                    
                                            ######                                   
                                           ########,                                 
                                     ,,################,,,,,                         
                               ,,#################################,,                 
                          ,,##########################################,,             
                       ,#########################################, ''#####,          
                    ,#############################################,,   '####,        
                  ,##################################################,,,,####,       
                ,###########''''           ''''###############################       
              ,#####''   ,,,,##########,,,,          '''####'''          '####       
            ,##' ,,,,###########################,,,                        '##       
           ' ,,###''''                  '''############,,,                           
         ,,##''                                '''############,,,,        ,,,,,,###''
      ,#''                                            '''#######################'''  
     '                                                          ''''####''''         
             ,#######,   #######,   ,#######,      ##                                
            ,#'     '#,  ##    ##  ,#'     '#,    #''#        ######   ,####,        
            ##       ##  ##   ,#'  ##            #'  '#       #        #'  '#        
            ##       ##  #######   ##           ,######,      #####,   #    #        
            '#,     ,#'  ##    ##  '#,     ,#' ,#      #,         ##   #,  ,#        
             '#######'   ##     ##  '#######'  #'      '#     #####' # '####'        



                  #######################################################
                  #                        -***-                        #
                  #          Department of theory and spectroscopy      #
                  #    Directorship and core code : Frank Neese         #
                  #        Max Planck Institute fuer Kohlenforschung    #
                  #                Kaiser Wilhelm Platz 1               #
                  #                 D-45470 Muelheim/Ruhr               #
                  #                      Germany                        #
                  #                                                     #
                  #                  All rights reserved                #
                  #                        -***-                        #
                  #######################################################


                         Program Version 5.0.3 -  RELEASE  -


 With contributions from (in alphabetic order):
   Daniel Aravena         : Magnetic Suceptibility
   Michael Atanasov       : Ab Initio Ligand Field Theory (pilot matlab implementation)
   Alexander A. Auer      : GIAO ZORA, VPT2 properties, NMR spectrum
   Ute Becker             : Parallelization
   Giovanni Bistoni       : ED, misc. LED, open-shell LED, HFLD
   Martin Brehm           : Molecular dynamics
   Dmytro Bykov           : SCF Hessian
   Vijay G. Chilkuri      : MRCI spin determinant printing, contributions to CSF-ICE
   Dipayan Datta          : RHF DLPNO-CCSD density
   Achintya Kumar Dutta   : EOM-CC, STEOM-CC
   Dmitry Ganyushin       : Spin-Orbit,Spin-Spin,Magnetic field MRCI
   Miquel Garcia          : C-PCM and meta-GGA Hessian, CC/C-PCM, Gaussian charge scheme
   Yang Guo               : DLPNO-NEVPT2, F12-NEVPT2, CIM, IAO-localization
   Andreas Hansen         : Spin unrestricted coupled pair/coupled cluster methods
   Benjamin Helmich-Paris : MC-RPA, TRAH-SCF, COSX integrals
   Lee Huntington         : MR-EOM, pCC
   Robert Izsak           : Overlap fitted RIJCOSX, COSX-SCS-MP3, EOM
   Marcus Kettner         : VPT2
   Christian Kollmar      : KDIIS, OOCD, Brueckner-CCSD(T), CCSD density, CASPT2, CASPT2-K
   Simone Kossmann        : Meta GGA functionals, TD-DFT gradient, OOMP2, MP2 Hessian
   Martin Krupicka        : Initial AUTO-CI
   Lucas Lang             : DCDCAS
   Marvin Lechner         : AUTO-CI (C++ implementation), FIC-MRCC
   Dagmar Lenk            : GEPOL surface, SMD
   Dimitrios Liakos       : Extrapolation schemes; Compound Job, initial MDCI parallelization
   Dimitrios Manganas     : Further ROCIS development; embedding schemes
   Dimitrios Pantazis     : SARC Basis sets
   Anastasios Papadopoulos: AUTO-CI, single reference methods and gradients
   Taras Petrenko         : DFT Hessian,TD-DFT gradient, ASA, ECA, R-Raman, ABS, FL, XAS/XES, NRVS
   Peter Pinski           : DLPNO-MP2, DLPNO-MP2 Gradient
   Christoph Reimann      : Effective Core Potentials
   Marius Retegan         : Local ZFS, SOC
   Christoph Riplinger    : Optimizer, TS searches, QM/MM, DLPNO-CCSD(T), (RO)-DLPNO pert. Triples
   Tobias Risthaus        : Range-separated hybrids, TD-DFT gradient, RPA, STAB
   Michael Roemelt        : Original ROCIS implementation
   Masaaki Saitow         : Open-shell DLPNO-CCSD energy and density
   Barbara Sandhoefer     : DKH picture change effects
   Avijit Sen             : IP-ROCIS
   Kantharuban Sivalingam : CASSCF convergence, NEVPT2, FIC-MRCI
   Bernardo de Souza      : ESD, SOC TD-DFT
   Georgi Stoychev        : AutoAux, RI-MP2 NMR, DLPNO-MP2 response
   Willem Van den Heuvel  : Paramagnetic NMR
   Boris Wezisla          : Elementary symmetry handling
   Frank Wennmohs         : Technical directorship


 We gratefully acknowledge several colleagues who have allowed us to
 interface, adapt or use parts of their codes:
   Stefan Grimme, W. Hujo, H. Kruse, P. Pracht,  : VdW corrections, initial TS optimization,
                  C. Bannwarth, S. Ehlert          DFT functionals, gCP, sTDA/sTD-DF
   Ed Valeev, F. Pavosevic, A. Kumar             : LibInt (2-el integral package), F12 methods
   Garnet Chan, S. Sharma, J. Yang, R. Olivares  : DMRG
   Ulf Ekstrom                                   : XCFun DFT Library
   Mihaly Kallay                                 : mrcc  (arbitrary order and MRCC methods)
   Jiri Pittner, Ondrej Demel                    : Mk-CCSD
   Frank Weinhold                                : gennbo (NPA and NBO analysis)
   Christopher J. Cramer and Donald G. Truhlar   : smd solvation model
   Lars Goerigk                                  : TD-DFT with DH, B97 family of functionals
   V. Asgeirsson, H. Jonsson                     : NEB implementation
   FAccTs GmbH                                   : IRC, NEB, NEB-TS, DLPNO-Multilevel, CI-OPT
                                                   MM, QMMM, 2- and 3-layer-ONIOM, Crystal-QMMM,
                                                   LR-CPCM, SF, NACMEs, symmetry and pop. for TD-DFT,
                                                   nearIR, NL-DFT gradient (VV10), updates on ESD,
                                                   ML-optimized integration grids
   S Lehtola, MJT Oliveira, MAL Marques          : LibXC Library
   Liviu Ungur et al                             : ANISO software


 Your calculation uses the libint2 library for the computation of 2-el integrals
 For citations please refer to: http://libint.valeyev.net

 Your ORCA version has been built with support for libXC version: 5.1.0
 For citations please refer to: https://tddft.org/programs/libxc/

 This ORCA versions uses:
   CBLAS   interface :  Fast vector & matrix operations
   LAPACKE interface :  Fast linear algebra routines
   SCALAPACK package :  Parallel linear algebra routines
   Shared memory     :  Shared parallel matrices
   BLAS/LAPACK       :  OpenBLAS 0.3.15  USE64BITINT DYNAMIC_ARCH NO_AFFINITY Haswell SINGLE_THREADED
        Core in use  :  Haswell
   Copyright (c) 2011-2014, The OpenBLAS Project




***************************************
The coordinates will be read from file: 03r.xyz
***************************************


Your calculation utilizes the geometrical counterpoise correction gCP
Please cite in your paper:
H.Kruse, S. Grimme J.Chem.Phys., 136, (2012), 154101 
   

Your calculation utilizes the atom-pairwise dispersion correction
with the Becke-Johnson damping scheme (D3BJ)
Cite in your paper:
S.Grimme, S.Ehrlich, L.Goerigk, J Comput Chem, (2011), 32, 1456–1465 
S.Grimme, J.Antony, S.Ehrlich and H.Krieg, J.Chem.Phys., 132, (2010), 154104 
   

Your calculation employs the composite approach PBEh-3c.
Please cite in your paper:
S. Grimme, J. G. Brandenburg, C. Bannwarth, A. Hansen J.Chem.Phys., 143, (2015), 054107 
   

================================================================================

----- Orbital basis set information -----
Your calculation utilizes the basis: def2-mSVP

----- AuxJ basis set information -----
Your calculation utilizes the auxiliary basis: def2/J
   F. Weigend, Phys. Chem. Chem. Phys. 8, 1057 (2006).

================================================================================
                                        WARNINGS
                       Please study these warnings very carefully!
================================================================================


INFO   : the flag for use of the SHARK integral package has been found!

================================================================================
                                       INPUT FILE
================================================================================
NAME = pbeh-3c.inp
|  1> ! PBEh-3c def2/J TightSCF DefGrid3
|  2> 
|  3> %maxcore 60000
|  4> 
|  5> %pal
|  6> nprocs 4
|  7> end
|  8> 
|  9> *xyzfile 0 1 03r.xyz
| 10> 
| 11>                          ****END OF INPUT****
================================================================================

                       ****************************
                       * Single Point Calculation *
                       ****************************

---------------------------------
CARTESIAN COORDINATES (ANGSTROEM)
---------------------------------
  Si     0.000000    0.000000   -1.376238
  C      0.000000   -1.353577   -0.076013
  C      0.000000    1.353577   -0.076013
  C      0.000000   -0.743168    1.123967
  C      0.000000    0.743168    1.123967
  H     -1.204337    0.000000   -2.249363
  H      1.204337    0.000000   -2.249363
  H      0.000000   -2.431037   -0.181131
  H      0.000000    2.431037   -0.181131
  H      0.000000   -1.277650    2.070660
  H      0.000000    1.277650    2.070660

----------------------------
CARTESIAN COORDINATES (A.U.)
----------------------------
  NO LB      ZA    FRAG     MASS         X           Y           Z
   0 Si   14.0000    0    28.086    0.000000    0.000000   -2.600714
   1 C     6.0000    0    12.011    0.000000   -2.557891   -0.143644
   2 C     6.0000    0    12.011    0.000000    2.557891   -0.143644
   3 C     6.0000    0    12.011    0.000000   -1.404384    2.123990
   4 C     6.0000    0    12.011    0.000000    1.404384    2.123990
   5 H     1.0000    0     1.008   -2.275867    0.000000   -4.250681
   6 H     1.0000    0     1.008    2.275867    0.000000   -4.250681
   7 H     1.0000    0     1.008    0.000000   -4.593994   -0.342288
   8 H     1.0000    0     1.008    0.000000    4.593994   -0.342288
   9 H     1.0000    0     1.008    0.000000   -2.414409    3.912979
  10 H     1.0000    0     1.008    0.000000    2.414409    3.912979

--------------------------------
INTERNAL COORDINATES (ANGSTROEM)
--------------------------------
 Si     0   0   0     0.000000000000     0.00000000     0.00000000
 C      1   0   0     1.876901134476     0.00000000     0.00000000
 C      1   2   0     1.876901134476    92.30343619     0.00000000
 C      2   1   3     1.346310644624   106.88663151     0.00000000
 C      3   1   2     1.346310644624   106.88663151     0.00000000
 H      1   2   3     1.487539895746   113.99246523   242.39756663
 H      1   2   3     1.487539895746   113.99246523   117.60243337
 H      2   1   3     1.082574864423   130.57951926   180.00000085
 H      3   1   2     1.082574864423   130.57951926   180.00000085
 H      4   2   1     1.087151021550   123.59020465   180.00000000
 H      5   3   1     1.087151021550   123.59020465   180.00000000

---------------------------
INTERNAL COORDINATES (A.U.)
---------------------------
 Si     0   0   0     0.000000000000     0.00000000     0.00000000
 C      1   0   0     3.546829124605     0.00000000     0.00000000
 C      1   2   0     3.546829124605    92.30343619     0.00000000
 C      2   1   3     2.544158409523   106.88663151     0.00000000
 C      3   1   2     2.544158409523   106.88663151     0.00000000
 H      1   2   3     2.811043016242   113.99246523   242.39756663
 H      1   2   3     2.811043016242   113.99246523   117.60243337
 H      2   1   3     2.045770013226   130.57951926   180.00000085
 H      3   1   2     2.045770013226   130.57951926   180.00000085
 H      4   2   1     2.054417696943   123.59020465   180.00000000
 H      5   3   1     2.054417696943   123.59020465   180.00000000

---------------------
BASIS SET INFORMATION
---------------------
There are 3 groups of distinct atoms

 Group   1 Type Si  : 10s7p1d contracted to 4s3p1d pattern {5311/511/1}
 Group   2 Type C   : 8s4p1d contracted to 4s2p1d pattern {5111/31/1}
 Group   3 Type H   : 4s contracted to 2s pattern {31}

Atom   0Si   basis set group =>   1
Atom   1C    basis set group =>   2
Atom   2C    basis set group =>   2
Atom   3C    basis set group =>   2
Atom   4C    basis set group =>   2
Atom   5H    basis set group =>   3
Atom   6H    basis set group =>   3
Atom   7H    basis set group =>   3
Atom   8H    basis set group =>   3
Atom   9H    basis set group =>   3
Atom  10H    basis set group =>   3
---------------------------------
AUXILIARY/J BASIS SET INFORMATION
---------------------------------
There are 3 groups of distinct atoms

 Group   1 Type Si  : 14s5p5d2f1g contracted to 8s4p3d1f1g pattern {71111111/2111/311/2/1}
 Group   2 Type C   : 12s5p4d2f1g contracted to 6s4p3d1f1g pattern {711111/2111/211/2/1}
 Group   3 Type H   : 5s2p1d contracted to 3s1p1d pattern {311/2/1}

Atom   0Si   basis set group =>   1
Atom   1C    basis set group =>   2
Atom   2C    basis set group =>   2
Atom   3C    basis set group =>   2
Atom   4C    basis set group =>   2
Atom   5H    basis set group =>   3
Atom   6H    basis set group =>   3
Atom   7H    basis set group =>   3
Atom   8H    basis set group =>   3
Atom   9H    basis set group =>   3
Atom  10H    basis set group =>   3


           ************************************************************
           *        Program running with 4 parallel MPI-processes     *
           *              working on a common directory               *
           ************************************************************
------------------------------------------------------------------------------
                           ORCA GTO INTEGRAL CALCULATION
                           -- RI-GTO INTEGRALS CHOSEN --
------------------------------------------------------------------------------
------------------------------------------------------------------------------
                   ___                                                        
                  /   \      - P O W E R E D   B Y -                         
                 /     \                                                     
                 |  |  |   _    _      __       _____    __    __             
                 |  |  |  | |  | |    /  \     |  _  \  |  |  /  |          
                  \  \/   | |  | |   /    \    | | | |  |  | /  /          
                 / \  \   | |__| |  /  /\  \   | |_| |  |  |/  /          
                |  |  |   |  __  | /  /__\  \  |    /   |      \           
                |  |  |   | |  | | |   __   |  |    \   |  |\   \          
                \     /   | |  | | |  |  |  |  | |\  \  |  | \   \       
                 \___/    |_|  |_| |__|  |__|  |_| \__\ |__|  \__/        
                                                                              
                      - O R C A' S   B I G   F R I E N D -                    
                                      &                                       
                       - I N T E G R A L  F E E D E R -                       
                                                                              
 v1 FN, 2020, v2 2021                                                         
------------------------------------------------------------------------------


Reading SHARK input file pbeh-3c.SHARKINP.tmp ... ok
----------------------
SHARK INTEGRAL PACKAGE
----------------------

Number of atoms                             ...     11
Number of basis functions                   ...     90
Number of shells                            ...     48
Maximum angular momentum                    ...      2
Integral batch strategy                     ... SHARK/LIBINT Hybrid
RI-J (if used) integral strategy            ... SPLIT-RIJ (Revised 2003 algorithm where possible)
Printlevel                                  ...      1
Contraction scheme used                     ... SEGMENTED contraction
Coulomb Range Separation                    ... NOT USED
Exchange Range Separation                   ... NOT USED
Finite Nucleus Model                        ... NOT USED
Auxiliary Coulomb fitting basis             ... AVAILABLE
   # of basis functions in Aux-J            ...    313
   # of shells in Aux-J                     ...    107
   Maximum angular momentum in Aux-J        ...      4
Auxiliary J/K fitting basis                 ... NOT available
Auxiliary Correlation fitting basis         ... NOT available
Auxiliary 'external' fitting basis          ... NOT available
Integral threshold                          ...     2.500000e-11
Primitive cut-off                           ...     2.500000e-12
Primitive pair pre-selection threshold      ...     2.500000e-12

Calculating pre-screening integrals         ... done (  0.0 sec) Dimension = 48
Organizing shell pair data                  ... done (  0.3 sec)
Shell pair information
Total number of shell pairs                 ...      1176
Shell pairs after pre-screening             ...      1138
Total number of primitive shell pairs       ...      4558
Primitive shell pairs kept                  ...      3308
          la=0 lb=0:    492 shell pairs
          la=1 lb=0:    350 shell pairs
          la=1 lb=1:     66 shell pairs
          la=2 lb=0:    160 shell pairs
          la=2 lb=1:     55 shell pairs
          la=2 lb=2:     15 shell pairs

Calculating one electron integrals          ... done (  0.0 sec)
Calculating RI/J V-Matrix + Cholesky decomp.... done (  0.1 sec)
Calculating Nuclear repulsion               ... done (  0.1 sec) ENN=    200.951626476006 Eh

SHARK setup successfully completed in   1.4 seconds

Maximum memory used throughout the entire GTOINT-calculation: 9.9 MB


           ************************************************************
           *        Program running with 4 parallel MPI-processes     *
           *              working on a common directory               *
           ************************************************************
-------------------------------------------------------------------------------
                                 ORCA SCF
-------------------------------------------------------------------------------

------------
SCF SETTINGS
------------
Hamiltonian:
 Density Functional     Method          .... DFT(GTOs)
 Exchange Functional    Exchange        .... PBE
   PBE kappa parameter   XKappa         ....  1.024500
   PBE mue parameter    XMuePBE         ....  0.123457
 Correlation Functional Correlation     .... PBE
   PBE beta parameter  CBetaPBE         ....  0.030000
 LDA part of GGA corr.  LDAOpt          .... PW91-LDA
 Gradients option       PostSCFGGA      .... off
 Hybrid DFT is turned on
   Fraction HF Exchange ScalHFX         ....  0.420000
   Scaling of DF-GGA-X  ScalDFX         ....  0.580000
   Scaling of DF-GGA-C  ScalDFC         ....  1.000000
   Scaling of DF-LDA-C  ScalLDAC        ....  1.000000
   Perturbative correction              ....  0.000000
   Density functional embedding theory  .... OFF
 RI-approximation to the Coulomb term is turned on
   Number of AuxJ basis functions       .... 313
   RIJ-ON(X) (HFX calculated with O(N)) .... on
   Number of AuxJ basis functions       .... 313
   RIJ-COSX (HFX calculated with COS-X)).... on


General Settings:
 Integral files         IntName         .... pbeh-3c
 Hartree-Fock type      HFTyp           .... RHF
 Total Charge           Charge          ....    0
 Multiplicity           Mult            ....    1
 Number of Electrons    NEL             ....   44
 Basis Dimension        Dim             ....   90
 Nuclear Repulsion      ENuc            ....    200.9516264760 Eh

Convergence Acceleration:
 DIIS                   CNVDIIS         .... on
   Start iteration      DIISMaxIt       ....    12
   Startup error        DIISStart       ....  0.200000
   # of expansion vecs  DIISMaxEq       ....     5
   Bias factor          DIISBfac        ....   1.050
   Max. coefficient     DIISMaxC        ....  10.000
 Trust-Rad. Augm. Hess. CNVTRAH         .... auto
   Auto Start mean grad. ratio tolernc. ....  1.125000
   Auto Start start iteration           ....    20
   Auto Start num. interpolation iter.  ....    10
   Max. Number of Micro iterations      ....    16
   Max. Number of Macro iterations      .... Maxiter - #DIIS iter
   Number of Davidson start vectors     ....     2
   Converg. threshold I  (grad. norm)   ....   1.000e-05
   Converg. threshold II (energy diff.) ....   1.000e-08
   Grad. Scal. Fac. for Micro threshold ....   0.100
   Minimum threshold for Micro iter.    ....   0.010
   NR start threshold (gradient norm)   ....   0.001
   Initial trust radius                 ....   0.400
   Minimum AH scaling param. (alpha)    ....   1.000
   Maximum AH scaling param. (alpha)    .... 1000.000
   Orbital update algorithm             .... Taylor
   White noise on init. David. guess    .... on
   Maximum white noise                  ....   0.010
   Quad. conv. algorithm                .... NR
   COSX micro iterations for RIJONX calc.... off
 SOSCF                  CNVSOSCF        .... on
   Start iteration      SOSCFMaxIt      ....   150
   Startup grad/error   SOSCFStart      ....  0.003300
 Level Shifting         CNVShift        .... on
   Level shift para.    LevelShift      ....    0.2500
   Turn off err/grad.   ShiftErr        ....    0.0010
 Zerner damping         CNVZerner       .... off
 Static damping         CNVDamp         .... on
   Fraction old density DampFac         ....    0.7000
   Max. Damping (<1)    DampMax         ....    0.9800
   Min. Damping (>=0)   DampMin         ....    0.0000
   Turn off err/grad.   DampErr         ....    0.1000
 Fernandez-Rico         CNVRico         .... off

SCF Procedure:
 Maximum # iterations   MaxIter         ....   125
 SCF integral mode      SCFMode         .... Direct
   Integral package                     .... SHARK and LIBINT hybrid scheme
 Reset frequency        DirectResetFreq ....    20
 Integral Threshold     Thresh          ....  2.500e-11 Eh
 Primitive CutOff       TCut            ....  2.500e-12 Eh

Convergence Tolerance:
 Convergence Check Mode ConvCheckMode   .... Total+1el-Energy
 Convergence forced     ConvForced      .... 0
 Energy Change          TolE            ....  1.000e-08 Eh
 1-El. energy change                    ....  1.000e-05 Eh
 Orbital Gradient       TolG            ....  1.000e-05
 Orbital Rotation angle TolX            ....  1.000e-05
 DIIS Error             TolErr          ....  5.000e-07


Diagonalization of the overlap matrix:
Smallest eigenvalue                        ... 1.962e-03
Time for diagonalization                   ...    0.002 sec
Threshold for overlap eigenvalues          ... 1.000e-08
Number of eigenvalues below threshold      ... 0
Time for construction of square roots      ...    0.285 sec
Total time needed                          ...    0.356 sec

--------------------------------
INITIAL GUESS: MINIMAL BASIS EHT
--------------------------------
The minimal basis has 35 functions
EHT matrix was diagonalized
Basis set overlap was calculated now projecting the orbitals
Using GuessMode=FMatrix for the initial guess
C*T matrix was formed
Effective Fockian was calculated
Effective Fockian was diagonalized
Initial density was built
                      ------------------
                      INITIAL GUESS DONE
                      ------------------
-------------------
DFT GRID GENERATION
-------------------

General Integration Accuracy     IntAcc      ... 4.959
Radial Grid Type                 RadialGrid  ... OptM3 with GC (2021)
Angular Grid (max. ang.)         AngularGrid ... 6 (Lebedev-590)
Angular grid pruning method      GridPruning ... 4 (adaptive)
Weight generation scheme         WeightScheme... Becke
Basis function cutoff            BFCut       ... 1.0000e-11
Integration weight cutoff        WCut        ... 1.0000e-14
Angular grids for H and He will be reduced by one unit
Partially contracted basis set               ... off
Rotationally invariant grid construction     ... off

Total number of grid points                  ...   126522
Total number of batches                      ...     1984
Average number of points per batch           ...       63
Average number of grid points per atom       ...    11502
Time for grid setup =    2.472 sec

--------------------
COSX GRID GENERATION
--------------------

GRIDX 1
-------
General Integration Accuracy     IntAcc      ... 4.020
Radial Grid Type                 RadialGrid  ... OptM3 with GC (2021)
Angular Grid (max. ang.)         AngularGrid ... 2 (Lebedev-110)
Angular grid pruning method      GridPruning ... 4 (adaptive)
Weight generation scheme         WeightScheme... Becke
Basis function cutoff            BFCut       ... 1.0000e-11
Integration weight cutoff        WCut        ... 1.0000e-14
Angular grids for H and He will be reduced by one unit
Partially contracted basis set               ... on
Rotationally invariant grid construction     ... off

Total number of grid points                  ...    13861
Total number of batches                      ...      224
Average number of points per batch           ...       61
Average number of grid points per atom       ...     1260
UseSFitting                                  ... on

GRIDX 2
-------
General Integration Accuracy     IntAcc      ... 4.338
Radial Grid Type                 RadialGrid  ... OptM3 with GC (2021)
Angular Grid (max. ang.)         AngularGrid ... 3 (Lebedev-194)
Angular grid pruning method      GridPruning ... 4 (adaptive)
Weight generation scheme         WeightScheme... Becke
Basis function cutoff            BFCut       ... 1.0000e-11
Integration weight cutoff        WCut        ... 1.0000e-14
Angular grids for H and He will be reduced by one unit
Partially contracted basis set               ... on
Rotationally invariant grid construction     ... off

Total number of grid points                  ...    31065
Total number of batches                      ...      492
Average number of points per batch           ...       63
Average number of grid points per atom       ...     2824
UseSFitting                                  ... on

GRIDX 3
-------
General Integration Accuracy     IntAcc      ... 4.871
Radial Grid Type                 RadialGrid  ... OptM3 with GC (2021)
Angular Grid (max. ang.)         AngularGrid ... 4 (Lebedev-302)
Angular grid pruning method      GridPruning ... 4 (adaptive)
Weight generation scheme         WeightScheme... Becke
Basis function cutoff            BFCut       ... 1.0000e-11
Integration weight cutoff        WCut        ... 1.0000e-14
Angular grids for H and He will be reduced by one unit
Partially contracted basis set               ... on
Rotationally invariant grid construction     ... off

Total number of grid points                  ...    59889
Total number of batches                      ...      941
Average number of points per batch           ...       63
Average number of grid points per atom       ...     5444
UseSFitting                                  ... on

Time for X-Grid setup             =    4.045 sec

--------------
SCF ITERATIONS
--------------
ITER       Energy         Delta-E        Max-DP      RMS-DP      [F,P]     Damp
               ***  Starting incremental Fock matrix formation  ***
  0   -444.1091458847   0.000000000000 0.08281900  0.00503184  0.3938602 0.7000
  1   -444.3100161613  -0.200870276577 0.05593870  0.00363197  0.2780489 0.7000
                               ***Turning on DIIS***
  2   -444.4494186266  -0.139402465308 0.03643943  0.00260656  0.1952568 0.7000
  3   -444.5469509138  -0.097532287222 0.02448002  0.00197243  0.1369670 0.7000
  4   -444.6156391649  -0.068688251104 0.06048365  0.00487280  0.0958787 0.0000
  5   -444.7783962094  -0.162757044480 0.00495434  0.00025031  0.0040897 0.0000
                      *** Initiating the SOSCF procedure ***
                           *** Shutting down DIIS ***
                      *** Re-Reading the Fockian *** 
                      *** Removing any level shift *** 
ITER      Energy       Delta-E        Grad      Rot      Max-DP    RMS-DP
  6   -444.77849755  -0.0001013397  0.000703  0.000703  0.001511  0.000083
               *** Restarting incremental Fock matrix formation ***
  7   -444.77852337  -0.0000258253  0.000356  0.000622  0.000965  0.000062
  8   -444.77852581  -0.0000024340  0.000311  0.000830  0.000734  0.000028
  9   -444.77852688  -0.0000010757  0.000120  0.000282  0.000266  0.000012
 10   -444.77852706  -0.0000001737  0.000028  0.000054  0.000061  0.000003
 11   -444.77852707  -0.0000000111  0.000018  0.000026  0.000029  0.000002
                  ***Gradient check signals convergence***
              ***Rediagonalizing the Fockian in SOSCF/NRSCF***

               *****************************************************
               *                     SUCCESS                       *
               *           SCF CONVERGED AFTER  12 CYCLES          *
               *****************************************************

Old exchange energy                            =    -18.132694951 Eh
New exchange energy                            =    -18.132697765 Eh
Exchange energy change after final integration =     -0.000002814 Eh
Total energy after final integration           =   -444.778529887 Eh
Final COS-X integration done in                =     1.657 sec

----------------
TOTAL SCF ENERGY
----------------

Total Energy       :         -444.77852989 Eh          -12103.03910 eV

Components:
Nuclear Repulsion  :          200.95162648 Eh            5468.17175 eV
Electronic Energy  :         -645.73015636 Eh          -17571.21086 eV
One Electron Energy:        -1008.56178884 Eh          -27444.36152 eV
Two Electron Energy:          362.83163248 Eh            9873.15066 eV
Max COSX asymmetry :            0.00000141 Eh               0.00004 eV

Virial components:
Potential Energy   :         -887.68038352 Eh          -24155.01125 eV
Kinetic Energy     :          442.90185363 Eh           12051.97215 eV
Virial Ratio       :            2.00423723


DFT components:
N(Alpha)           :       22.000000813559 electrons
N(Beta)            :       22.000000813559 electrons
N(Total)           :       44.000001627119 electrons
E(X)               :      -24.106019575626 Eh       
E(C)               :       -1.970261266459 Eh       
E(XC)              :      -26.076280842085 Eh       
DFET-embed. en.    :        0.000000000000 Eh       

---------------
SCF CONVERGENCE
---------------

  Last Energy change         ...   -4.5637e-09  Tolerance :   1.0000e-08
  Last MAX-Density change    ...    1.6356e-15  Tolerance :   1.0000e-07
  Last RMS-Density change    ...    6.8739e-17  Tolerance :   5.0000e-09
  Last Orbital Gradient      ...    7.5781e-07  Tolerance :   1.0000e-05
  Last Orbital Rotation      ...    1.4299e-06  Tolerance :   1.0000e-05

             **** THE GBW FILE WAS UPDATED (pbeh-3c.gbw) ****
             **** DENSITY pbeh-3c.scfp WAS UPDATED ****
             **** ENERGY FILE WAS UPDATED (pbeh-3c.en.tmp) ****
             **** THE GBW FILE WAS UPDATED (pbeh-3c.gbw) ****
             **** DENSITY pbeh-3c.scfp WAS UPDATED ****
----------------
ORBITAL ENERGIES
----------------

  NO   OCC          E(Eh)            E(eV) 
   0   2.0000     -66.733485     -1815.9104 
   1   2.0000     -10.461150      -284.6624 
   2   2.0000     -10.460883      -284.6551 
   3   2.0000     -10.437124      -284.0086 
   4   2.0000     -10.437097      -284.0078 
   5   2.0000      -5.511071      -149.9639 
   6   2.0000      -3.802457      -103.4701 
   7   2.0000      -3.801932      -103.4558 
   8   2.0000      -3.801759      -103.4511 
   9   2.0000      -0.918192       -24.9853 
  10   2.0000      -0.803016       -21.8512 
  11   2.0000      -0.696691       -18.9579 
  12   2.0000      -0.588008       -16.0005 
  13   2.0000      -0.579942       -15.7810 
  14   2.0000      -0.548202       -14.9173 
  15   2.0000      -0.469644       -12.7797 
  16   2.0000      -0.439082       -11.9480 
  17   2.0000      -0.418481       -11.3874 
  18   2.0000      -0.369104       -10.0438 
  19   2.0000      -0.363315        -9.8863 
  20   2.0000      -0.360668        -9.8143 
  21   2.0000      -0.276251        -7.5172 
  22   0.0000      -0.031620        -0.8604 
  23   0.0000       0.070997         1.9319 
  24   0.0000       0.096920         2.6373 
  25   0.0000       0.100567         2.7366 
  26   0.0000       0.146986         3.9997 
  27   0.0000       0.181560         4.9405 
  28   0.0000       0.195629         5.3233 
  29   0.0000       0.198233         5.3942 
  30   0.0000       0.216047         5.8789 
  31   0.0000       0.228112         6.2072 
  32   0.0000       0.261210         7.1079 
  33   0.0000       0.298784         8.1303 
  34   0.0000       0.325478         8.8567 
  35   0.0000       0.425482        11.5780 
  36   0.0000       0.426274        11.5995 
  37   0.0000       0.440400        11.9839 
  38   0.0000       0.493257        13.4222 
  39   0.0000       0.509359        13.8604 
  40   0.0000       0.525176        14.2908 
  41   0.0000       0.544893        14.8273 
  42   0.0000       0.569099        15.4860 
  43   0.0000       0.594327        16.1725 
  44   0.0000       0.603923        16.4336 
  45   0.0000       0.623261        16.9598 
  46   0.0000       0.674944        18.3662 
  47   0.0000       0.695257        18.9189 
  48   0.0000       0.727796        19.8043 
  49   0.0000       0.750604        20.4250 
  50   0.0000       0.804062        21.8796 
  51   0.0000       0.809358        22.0237 
  52   0.0000       0.866521        23.5792 
  53   0.0000       0.920644        25.0520 
  54   0.0000       0.966642        26.3037 
  55   0.0000       0.966794        26.3078 
  56   0.0000       0.977965        26.6118 
  57   0.0000       0.996838        27.1253 
  58   0.0000       1.031040        28.0560 
  59   0.0000       1.065112        28.9832 
  60   0.0000       1.111033        30.2328 
  61   0.0000       1.166545        31.7433 
  62   0.0000       1.189441        32.3663 
  63   0.0000       1.217930        33.1416 
  64   0.0000       1.295497        35.2523 
  65   0.0000       1.314206        35.7614 
  66   0.0000       1.415681        38.5226 
  67   0.0000       1.520978        41.3879 
  68   0.0000       1.560948        42.4756 
  69   0.0000       1.789873        48.7049 
  70   0.0000       1.845166        50.2095 
  71   0.0000       1.923485        52.3407 
  72   0.0000       1.940821        52.8124 
  73   0.0000       2.014928        54.8290 
  74   0.0000       2.047919        55.7267 
  75   0.0000       2.201472        59.9051 
  76   0.0000       2.263610        61.5960 
  77   0.0000       2.273376        61.8617 
  78   0.0000       2.274066        61.8805 
  79   0.0000       2.353531        64.0428 
  80   0.0000       2.546643        69.2977 
  81   0.0000       2.615945        71.1835 
  82   0.0000       2.624510        71.4166 
  83   0.0000       2.698396        73.4271 
  84   0.0000       2.908575        79.1463 
  85   0.0000       3.038783        82.6895 
  86   0.0000      13.422021       365.2318 
  87   0.0000      13.583733       369.6322 
  88   0.0000      14.051525       382.3614 
  89   0.0000      14.204893       386.5348 

                    ********************************
                    * MULLIKEN POPULATION ANALYSIS *
                    ********************************

-----------------------
MULLIKEN ATOMIC CHARGES
-----------------------
   0 Si:    0.508172
   1 C :   -0.498660
   2 C :   -0.498660
   3 C :   -0.191992
   4 C :   -0.191992
   5 H :   -0.020292
   6 H :   -0.020292
   7 H :    0.230357
   8 H :    0.230357
   9 H :    0.226501
  10 H :    0.226501
Sum of atomic charges:    0.0000000

--------------------------------
MULLIKEN REDUCED ORBITAL CHARGES
--------------------------------
  0 Sis       :     5.149963  s :     5.149963
      pz      :     2.682243  p :     8.094345
      px      :     2.812333
      py      :     2.599769
      dz2     :     0.014966  d :     0.247519
      dxz     :     0.084271
      dyz     :     0.069685
      dx2y2   :     0.055361
      dxy     :     0.023236
  1 C s       :     3.354085  s :     3.354085
      pz      :     1.026415  p :     3.116956
      px      :     0.996705
      py      :     1.093836
      dz2     :     0.007614  d :     0.027618
      dxz     :     0.004565
      dyz     :     0.007283
      dx2y2   :     0.006376
      dxy     :     0.001779
  2 C s       :     3.354085  s :     3.354085
      pz      :     1.026415  p :     3.116957
      px      :     0.996705
      py      :     1.093836
      dz2     :     0.007614  d :     0.027618
      dxz     :     0.004565
      dyz     :     0.007283
      dx2y2   :     0.006376
      dxy     :     0.001779
  3 C s       :     3.251603  s :     3.251603
      pz      :     1.011449  p :     2.898597
      px      :     0.959851
      py      :     0.927296
      dz2     :     0.012880  d :     0.041792
      dxz     :     0.004618
      dyz     :     0.013259
      dx2y2   :     0.006254
      dxy     :     0.004781
  4 C s       :     3.251603  s :     3.251603
      pz      :     1.011449  p :     2.898597
      px      :     0.959851
      py      :     0.927296
      dz2     :     0.012880  d :     0.041792
      dxz     :     0.004618
      dyz     :     0.013259
      dx2y2   :     0.006254
      dxy     :     0.004781
  5 H s       :     1.020292  s :     1.020292
  6 H s       :     1.020292  s :     1.020292
  7 H s       :     0.769643  s :     0.769643
  8 H s       :     0.769643  s :     0.769643
  9 H s       :     0.773499  s :     0.773499
 10 H s       :     0.773499  s :     0.773499


                     *******************************
                     * LOEWDIN POPULATION ANALYSIS *
                     *******************************

----------------------
LOEWDIN ATOMIC CHARGES
----------------------
   0 Si:    0.367241
   1 C :   -0.306636
   2 C :   -0.306636
   3 C :   -0.128294
   4 C :   -0.128294
   5 H :   -0.023874
   6 H :   -0.023874
   7 H :    0.142996
   8 H :    0.142996
   9 H :    0.132189
  10 H :    0.132189

-------------------------------
LOEWDIN REDUCED ORBITAL CHARGES
-------------------------------
  0 Sis       :     4.965362  s :     4.965362
      pz      :     2.774535  p :     8.321465
      px      :     2.841482
      py      :     2.705448
      dz2     :     0.020242  d :     0.345931
      dxz     :     0.106874
      dyz     :     0.110546
      dx2y2   :     0.075523
      dxy     :     0.032746
  1 C s       :     2.965259  s :     2.965259
      pz      :     1.167896  p :     3.281701
      px      :     0.995309
      py      :     1.118496
      dz2     :     0.018477  d :     0.059676
      dxz     :     0.007701
      dyz     :     0.021034
      dx2y2   :     0.009898
      dxy     :     0.002567
  2 C s       :     2.965259  s :     2.965259
      pz      :     1.167896  p :     3.281701
      px      :     0.995309
      py      :     1.118496
      dz2     :     0.018477  d :     0.059676
      dxz     :     0.007701
      dyz     :     0.021034
      dx2y2   :     0.009898
      dxy     :     0.002567
  3 C s       :     2.914711  s :     2.914711
      pz      :     1.110535  p :     3.121563
      px      :     0.948155
      py      :     1.062873
      dz2     :     0.030677  d :     0.092020
      dxz     :     0.007669
      dyz     :     0.030307
      dx2y2   :     0.013546
      dxy     :     0.009821
  4 C s       :     2.914711  s :     2.914711
      pz      :     1.110535  p :     3.121563
      px      :     0.948155
      py      :     1.062873
      dz2     :     0.030677  d :     0.092020
      dxz     :     0.007669
      dyz     :     0.030307
      dx2y2   :     0.013546
      dxy     :     0.009821
  5 H s       :     1.023874  s :     1.023874
  6 H s       :     1.023874  s :     1.023874
  7 H s       :     0.857004  s :     0.857004
  8 H s       :     0.857004  s :     0.857004
  9 H s       :     0.867811  s :     0.867811
 10 H s       :     0.867811  s :     0.867811


                      *****************************
                      * MAYER POPULATION ANALYSIS *
                      *****************************

  NA   - Mulliken gross atomic population
  ZA   - Total nuclear charge
  QA   - Mulliken gross atomic charge
  VA   - Mayer's total valence
  BVA  - Mayer's bonded valence
  FA   - Mayer's free valence

  ATOM       NA         ZA         QA         VA         BVA        FA
  0 Si    13.4918    14.0000     0.5082     3.8190     3.8190     0.0000
  1 C      6.4987     6.0000    -0.4987     3.7296     3.7296    -0.0000
  2 C      6.4987     6.0000    -0.4987     3.7296     3.7296     0.0000
  3 C      6.1920     6.0000    -0.1920     3.7997     3.7997     0.0000
  4 C      6.1920     6.0000    -0.1920     3.7997     3.7997     0.0000
  5 H      1.0203     1.0000    -0.0203     0.9848     0.9848     0.0000
  6 H      1.0203     1.0000    -0.0203     0.9848     0.9848     0.0000
  7 H      0.7696     1.0000     0.2304     0.9184     0.9184    -0.0000
  8 H      0.7696     1.0000     0.2304     0.9184     0.9184     0.0000
  9 H      0.7735     1.0000     0.2265     0.9104     0.9104     0.0000
 10 H      0.7735     1.0000     0.2265     0.9104     0.9104    -0.0000

  Mayer bond orders larger than 0.100000
B(  0-Si,  1-C ) :   0.9338 B(  0-Si,  2-C ) :   0.9338 B(  0-Si,  5-H ) :   0.9496 
B(  0-Si,  6-H ) :   0.9496 B(  1-C ,  3-C ) :   1.8217 B(  1-C ,  7-H ) :   0.9119 
B(  2-C ,  4-C ) :   1.8217 B(  2-C ,  8-H ) :   0.9119 B(  3-C ,  4-C ) :   1.0694 
B(  3-C ,  9-H ) :   0.9106 B(  4-C , 10-H ) :   0.9106 

-------
TIMINGS
-------

Total SCF time: 0 days 0 hours 1 min 7 sec 

Total time                  ....      67.165 sec
Sum of individual times     ....      61.152 sec  ( 91.0%)

Fock matrix formation       ....      49.815 sec  ( 74.2%)
  Split-RI-J                ....       5.858 sec  ( 11.8% of F)
  Chain of spheres X        ....      15.404 sec  ( 30.9% of F)
  XC integration            ....      13.972 sec  ( 28.0% of F)
    Basis function eval.    ....       2.064 sec  ( 14.8% of XC)
    Density eval.           ....       0.946 sec  (  6.8% of XC)
    XC-Functional eval.     ....       0.895 sec  (  6.4% of XC)
    XC-Potential eval.      ....       0.781 sec  (  5.6% of XC)
Diagonalization             ....       0.971 sec  (  1.4%)
Density matrix formation    ....       0.052 sec  (  0.1%)
Population analysis         ....       1.095 sec  (  1.6%)
Initial guess               ....       0.047 sec  (  0.1%)
Orbital Transformation      ....       0.000 sec  (  0.0%)
Orbital Orthonormalization  ....       0.000 sec  (  0.0%)
DIIS solution               ....       1.785 sec  (  2.7%)
SOSCF solution              ....       0.870 sec  (  1.3%)
Grid generation             ....       6.517 sec  (  9.7%)

Maximum memory used throughout the entire SCF-calculation: 49.6 MB


-------------------------------------------------------------------------------
                          DFT DISPERSION CORRECTION                            
                                                                               
                              DFTD3 V3.1  Rev 1                                
                          USING Becke-Johnson damping                          
-------------------------------------------------------------------------------
The PBEh-3c composite method is recognized
Using three-body term ABC
Active option DFTDOPT                   ...         4   

molecular C6(AA) [au] = 1822.331998 


            DFT-D V3
 parameters
 s6 scaling factor         :     1.0000 
 a1 scaling factor         :     0.4860 
 s8 scaling factor         :     0.0000 
 a2 scaling factor         :     4.5000 
 Damping factor alpha9(ATM):    16.0000 
 ad hoc parameters k1-k3   :    16.0000     1.3333    -4.0000 

 Edisp/kcal,au: -3.204881104647  -0.005107302591 
 E6   /kcal   :  -3.211120498 
 E8   /kcal   :  -0.000000000 
 E6(ABC)      :   0.006239393 
 % E8         :   0.000000000 
 % E6(ABC)    :  -0.194684084 

-------------------------   ----------------
Dispersion correction           -0.005107303
-------------------------   ----------------

------------------   -----------------
gCP correction             0.011696048
------------------   -----------------

-------------------------   --------------------
FINAL SINGLE POINT ENERGY      -444.771941142245
-------------------------   --------------------


                            ***************************************
                            *     ORCA property calculations      *
                            ***************************************

                                    ---------------------
                                    Active property flags
                                    ---------------------
   (+) Dipole Moment


------------------------------------------------------------------------------
                       ORCA ELECTRIC PROPERTIES CALCULATION
------------------------------------------------------------------------------

Dipole Moment Calculation                       ... on
Quadrupole Moment Calculation                   ... off
Polarizability Calculation                      ... off
GBWName                                         ... pbeh-3c.gbw
Electron density                                ... pbeh-3c.scfp
The origin for moment calculation is the CENTER OF MASS  = ( 0.000000,  0.000000 -0.326640)

-------------
DIPOLE MOMENT
-------------
                                X             Y             Z
Electronic contribution:     -0.00000      -0.00000      -0.12752
Nuclear contribution   :      0.00000       0.00000       0.36635
                        -----------------------------------------
Total Dipole Moment    :     -0.00000      -0.00000       0.23882
                        -----------------------------------------
Magnitude (a.u.)       :      0.23882
Magnitude (Debye)      :      0.60704



--------------------
Rotational spectrum 
--------------------
 
Rotational constants in cm-1:     0.223549     0.163570     0.097657 
Rotational constants in MHz :  6701.831784  4903.707813  2927.670371 

 Dipole components along the rotational axes: 
x,y,z [a.u.] :     0.238821    -0.000000    -0.000000 
x,y,z [Debye]:     0.607036    -0.000000    -0.000000 

 

Timings for individual modules:

Sum of individual times         ...       70.109 sec (=   1.168 min)
GTO integral calculation        ...        2.080 sec (=   0.035 min)   3.0 %
SCF iterations                  ...       68.029 sec (=   1.134 min)  97.0 %
                             ****ORCA TERMINATED NORMALLY****
TOTAL RUN TIME: 0 days 0 hours 1 minutes 14 seconds 511 msec
