
                                 *****************
                                 * O   R   C   A *
                                 *****************

                                            #,                                       
                                            ###                                      
                                            ####                                     
                                            #####                                    
                                            ######                                   
                                           ########,                                 
                                     ,,################,,,,,                         
                               ,,#################################,,                 
                          ,,##########################################,,             
                       ,#########################################, ''#####,          
                    ,#############################################,,   '####,        
                  ,##################################################,,,,####,       
                ,###########''''           ''''###############################       
              ,#####''   ,,,,##########,,,,          '''####'''          '####       
            ,##' ,,,,###########################,,,                        '##       
           ' ,,###''''                  '''############,,,                           
         ,,##''                                '''############,,,,        ,,,,,,###''
      ,#''                                            '''#######################'''  
     '                                                          ''''####''''         
             ,#######,   #######,   ,#######,      ##                                
            ,#'     '#,  ##    ##  ,#'     '#,    #''#        ######   ,####,        
            ##       ##  ##   ,#'  ##            #'  '#       #        #'  '#        
            ##       ##  #######   ##           ,######,      #####,   #    #        
            '#,     ,#'  ##    ##  '#,     ,#' ,#      #,         ##   #,  ,#        
             '#######'   ##     ##  '#######'  #'      '#     #####' # '####'        



                  #######################################################
                  #                        -***-                        #
                  #          Department of theory and spectroscopy      #
                  #    Directorship and core code : Frank Neese         #
                  #        Max Planck Institute fuer Kohlenforschung    #
                  #                Kaiser Wilhelm Platz 1               #
                  #                 D-45470 Muelheim/Ruhr               #
                  #                      Germany                        #
                  #                                                     #
                  #                  All rights reserved                #
                  #                        -***-                        #
                  #######################################################


                         Program Version 5.0.3 -  RELEASE  -


 With contributions from (in alphabetic order):
   Daniel Aravena         : Magnetic Suceptibility
   Michael Atanasov       : Ab Initio Ligand Field Theory (pilot matlab implementation)
   Alexander A. Auer      : GIAO ZORA, VPT2 properties, NMR spectrum
   Ute Becker             : Parallelization
   Giovanni Bistoni       : ED, misc. LED, open-shell LED, HFLD
   Martin Brehm           : Molecular dynamics
   Dmytro Bykov           : SCF Hessian
   Vijay G. Chilkuri      : MRCI spin determinant printing, contributions to CSF-ICE
   Dipayan Datta          : RHF DLPNO-CCSD density
   Achintya Kumar Dutta   : EOM-CC, STEOM-CC
   Dmitry Ganyushin       : Spin-Orbit,Spin-Spin,Magnetic field MRCI
   Miquel Garcia          : C-PCM and meta-GGA Hessian, CC/C-PCM, Gaussian charge scheme
   Yang Guo               : DLPNO-NEVPT2, F12-NEVPT2, CIM, IAO-localization
   Andreas Hansen         : Spin unrestricted coupled pair/coupled cluster methods
   Benjamin Helmich-Paris : MC-RPA, TRAH-SCF, COSX integrals
   Lee Huntington         : MR-EOM, pCC
   Robert Izsak           : Overlap fitted RIJCOSX, COSX-SCS-MP3, EOM
   Marcus Kettner         : VPT2
   Christian Kollmar      : KDIIS, OOCD, Brueckner-CCSD(T), CCSD density, CASPT2, CASPT2-K
   Simone Kossmann        : Meta GGA functionals, TD-DFT gradient, OOMP2, MP2 Hessian
   Martin Krupicka        : Initial AUTO-CI
   Lucas Lang             : DCDCAS
   Marvin Lechner         : AUTO-CI (C++ implementation), FIC-MRCC
   Dagmar Lenk            : GEPOL surface, SMD
   Dimitrios Liakos       : Extrapolation schemes; Compound Job, initial MDCI parallelization
   Dimitrios Manganas     : Further ROCIS development; embedding schemes
   Dimitrios Pantazis     : SARC Basis sets
   Anastasios Papadopoulos: AUTO-CI, single reference methods and gradients
   Taras Petrenko         : DFT Hessian,TD-DFT gradient, ASA, ECA, R-Raman, ABS, FL, XAS/XES, NRVS
   Peter Pinski           : DLPNO-MP2, DLPNO-MP2 Gradient
   Christoph Reimann      : Effective Core Potentials
   Marius Retegan         : Local ZFS, SOC
   Christoph Riplinger    : Optimizer, TS searches, QM/MM, DLPNO-CCSD(T), (RO)-DLPNO pert. Triples
   Tobias Risthaus        : Range-separated hybrids, TD-DFT gradient, RPA, STAB
   Michael Roemelt        : Original ROCIS implementation
   Masaaki Saitow         : Open-shell DLPNO-CCSD energy and density
   Barbara Sandhoefer     : DKH picture change effects
   Avijit Sen             : IP-ROCIS
   Kantharuban Sivalingam : CASSCF convergence, NEVPT2, FIC-MRCI
   Bernardo de Souza      : ESD, SOC TD-DFT
   Georgi Stoychev        : AutoAux, RI-MP2 NMR, DLPNO-MP2 response
   Willem Van den Heuvel  : Paramagnetic NMR
   Boris Wezisla          : Elementary symmetry handling
   Frank Wennmohs         : Technical directorship


 We gratefully acknowledge several colleagues who have allowed us to
 interface, adapt or use parts of their codes:
   Stefan Grimme, W. Hujo, H. Kruse, P. Pracht,  : VdW corrections, initial TS optimization,
                  C. Bannwarth, S. Ehlert          DFT functionals, gCP, sTDA/sTD-DF
   Ed Valeev, F. Pavosevic, A. Kumar             : LibInt (2-el integral package), F12 methods
   Garnet Chan, S. Sharma, J. Yang, R. Olivares  : DMRG
   Ulf Ekstrom                                   : XCFun DFT Library
   Mihaly Kallay                                 : mrcc  (arbitrary order and MRCC methods)
   Jiri Pittner, Ondrej Demel                    : Mk-CCSD
   Frank Weinhold                                : gennbo (NPA and NBO analysis)
   Christopher J. Cramer and Donald G. Truhlar   : smd solvation model
   Lars Goerigk                                  : TD-DFT with DH, B97 family of functionals
   V. Asgeirsson, H. Jonsson                     : NEB implementation
   FAccTs GmbH                                   : IRC, NEB, NEB-TS, DLPNO-Multilevel, CI-OPT
                                                   MM, QMMM, 2- and 3-layer-ONIOM, Crystal-QMMM,
                                                   LR-CPCM, SF, NACMEs, symmetry and pop. for TD-DFT,
                                                   nearIR, NL-DFT gradient (VV10), updates on ESD,
                                                   ML-optimized integration grids
   S Lehtola, MJT Oliveira, MAL Marques          : LibXC Library
   Liviu Ungur et al                             : ANISO software


 Your calculation uses the libint2 library for the computation of 2-el integrals
 For citations please refer to: http://libint.valeyev.net

 Your ORCA version has been built with support for libXC version: 5.1.0
 For citations please refer to: https://tddft.org/programs/libxc/

 This ORCA versions uses:
   CBLAS   interface :  Fast vector & matrix operations
   LAPACKE interface :  Fast linear algebra routines
   SCALAPACK package :  Parallel linear algebra routines
   Shared memory     :  Shared parallel matrices
   BLAS/LAPACK       :  OpenBLAS 0.3.15  USE64BITINT DYNAMIC_ARCH NO_AFFINITY Haswell SINGLE_THREADED
        Core in use  :  Haswell
   Copyright (c) 2011-2014, The OpenBLAS Project




***************************************
The coordinates will be read from file: c2f6.xyz
***************************************


Your calculation utilizes the geometrical counterpoise correction gCP
Please cite in your paper:
H.Kruse, S. Grimme J.Chem.Phys., 136, (2012), 154101 
   

Your calculation utilizes the atom-pairwise dispersion correction
with the Becke-Johnson damping scheme (D3BJ)
Cite in your paper:
S.Grimme, S.Ehrlich, L.Goerigk, J Comput Chem, (2011), 32, 1456–1465 
S.Grimme, J.Antony, S.Ehrlich and H.Krieg, J.Chem.Phys., 132, (2010), 154104 
   

Your calculation employs the composite approach PBEh-3c.
Please cite in your paper:
S. Grimme, J. G. Brandenburg, C. Bannwarth, A. Hansen J.Chem.Phys., 143, (2015), 054107 
   

================================================================================

----- Orbital basis set information -----
Your calculation utilizes the basis: def2-mSVP

----- AuxJ basis set information -----
Your calculation utilizes the auxiliary basis: def2/J
   F. Weigend, Phys. Chem. Chem. Phys. 8, 1057 (2006).

================================================================================
                                        WARNINGS
                       Please study these warnings very carefully!
================================================================================


INFO   : the flag for use of the SHARK integral package has been found!

================================================================================
                                       INPUT FILE
================================================================================
NAME = pbeh-3c.inp
|  1> ! PBEh-3c def2/J TightSCF DefGrid3
|  2> 
|  3> %maxcore 60000
|  4> 
|  5> %pal
|  6> nprocs 4
|  7> end
|  8> 
|  9> *xyzfile 0 1 c2f6.xyz
| 10> 
| 11>                          ****END OF INPUT****
================================================================================

                       ****************************
                       * Single Point Calculation *
                       ****************************

---------------------------------
CARTESIAN COORDINATES (ANGSTROEM)
---------------------------------
  C      0.000000    0.000000   -0.769729
  C      0.000000    0.000000    0.769729
  F      1.078874    0.622888   -1.223213
  F     -0.000000   -1.245776   -1.223213
  F     -1.078874    0.622888   -1.223213
  F      1.078874   -0.622888    1.223213
  F     -0.000000    1.245776    1.223213
  F     -1.078874   -0.622888    1.223213

----------------------------
CARTESIAN COORDINATES (A.U.)
----------------------------
  NO LB      ZA    FRAG     MASS         X           Y           Z
   0 C     6.0000    0    12.011    0.000000    0.000000   -1.454577
   1 C     6.0000    0    12.011    0.000000    0.000000    1.454577
   2 F     9.0000    0    18.998    2.038776    1.177088   -2.311538
   3 F     9.0000    0    18.998   -0.000000   -2.354176   -2.311538
   4 F     9.0000    0    18.998   -2.038776    1.177088   -2.311538
   5 F     9.0000    0    18.998    2.038776   -1.177088    2.311538
   6 F     9.0000    0    18.998   -0.000000    2.354176    2.311538
   7 F     9.0000    0    18.998   -2.038776   -1.177088    2.311538

--------------------------------
INTERNAL COORDINATES (ANGSTROEM)
--------------------------------
 C      0   0   0     0.000000000000     0.00000000     0.00000000
 C      1   0   0     1.539458200000     0.00000000     0.00000000
 F      1   2   0     1.325747417678   110.00237677     0.00000000
 F      1   2   3     1.325747460076   110.00237610   119.99999854
 F      1   2   3     1.325747417678   110.00237677   239.99999709
 F      2   1   3     1.325747417678   110.00237677   300.00000291
 F      2   1   3     1.325747460076   110.00237610    60.00000146
 F      2   1   3     1.325747417678   110.00237677   180.00000085

---------------------------
INTERNAL COORDINATES (A.U.)
---------------------------
 C      0   0   0     0.000000000000     0.00000000     0.00000000
 C      1   0   0     2.909154392619     0.00000000     0.00000000
 F      1   2   0     2.505299542164   110.00237677     0.00000000
 F      1   2   3     2.505299622285   110.00237610   119.99999854
 F      1   2   3     2.505299542164   110.00237677   239.99999709
 F      2   1   3     2.505299542164   110.00237677   300.00000291
 F      2   1   3     2.505299622285   110.00237610    60.00000146
 F      2   1   3     2.505299542164   110.00237677   180.00000085

---------------------
BASIS SET INFORMATION
---------------------
There are 2 groups of distinct atoms

 Group   1 Type C   : 8s4p1d contracted to 4s2p1d pattern {5111/31/1}
 Group   2 Type F   : 8s4p1d contracted to 4s2p1d pattern {5111/31/1}

Atom   0C    basis set group =>   1
Atom   1C    basis set group =>   1
Atom   2F    basis set group =>   2
Atom   3F    basis set group =>   2
Atom   4F    basis set group =>   2
Atom   5F    basis set group =>   2
Atom   6F    basis set group =>   2
Atom   7F    basis set group =>   2
---------------------------------
AUXILIARY/J BASIS SET INFORMATION
---------------------------------
There are 2 groups of distinct atoms

 Group   1 Type C   : 12s5p4d2f1g contracted to 6s4p3d1f1g pattern {711111/2111/211/2/1}
 Group   2 Type F   : 12s5p4d2f1g contracted to 6s4p3d1f1g pattern {711111/2111/211/2/1}

Atom   0C    basis set group =>   1
Atom   1C    basis set group =>   1
Atom   2F    basis set group =>   2
Atom   3F    basis set group =>   2
Atom   4F    basis set group =>   2
Atom   5F    basis set group =>   2
Atom   6F    basis set group =>   2
Atom   7F    basis set group =>   2


           ************************************************************
           *        Program running with 4 parallel MPI-processes     *
           *              working on a common directory               *
           ************************************************************
------------------------------------------------------------------------------
                           ORCA GTO INTEGRAL CALCULATION
                           -- RI-GTO INTEGRALS CHOSEN --
------------------------------------------------------------------------------
------------------------------------------------------------------------------
                   ___                                                        
                  /   \      - P O W E R E D   B Y -                         
                 /     \                                                     
                 |  |  |   _    _      __       _____    __    __             
                 |  |  |  | |  | |    /  \     |  _  \  |  |  /  |          
                  \  \/   | |  | |   /    \    | | | |  |  | /  /          
                 / \  \   | |__| |  /  /\  \   | |_| |  |  |/  /          
                |  |  |   |  __  | /  /__\  \  |    /   |      \           
                |  |  |   | |  | | |   __   |  |    \   |  |\   \          
                \     /   | |  | | |  |  |  |  | |\  \  |  | \   \       
                 \___/    |_|  |_| |__|  |__|  |_| \__\ |__|  \__/        
                                                                              
                      - O R C A' S   B I G   F R I E N D -                    
                                      &                                       
                       - I N T E G R A L  F E E D E R -                       
                                                                              
 v1 FN, 2020, v2 2021                                                         
------------------------------------------------------------------------------


Reading SHARK input file pbeh-3c.SHARKINP.tmp ... ok
----------------------
SHARK INTEGRAL PACKAGE
----------------------

Number of atoms                             ...      8
Number of basis functions                   ...    120
Number of shells                            ...     56
Maximum angular momentum                    ...      2
Integral batch strategy                     ... SHARK/LIBINT Hybrid
RI-J (if used) integral strategy            ... SPLIT-RIJ (Revised 2003 algorithm where possible)
Printlevel                                  ...      1
Contraction scheme used                     ... SEGMENTED contraction
Coulomb Range Separation                    ... NOT USED
Exchange Range Separation                   ... NOT USED
Finite Nucleus Model                        ... NOT USED
Auxiliary Coulomb fitting basis             ... AVAILABLE
   # of basis functions in Aux-J            ...    392
   # of shells in Aux-J                     ...    120
   Maximum angular momentum in Aux-J        ...      4
Auxiliary J/K fitting basis                 ... NOT available
Auxiliary Correlation fitting basis         ... NOT available
Auxiliary 'external' fitting basis          ... NOT available
Integral threshold                          ...     2.500000e-11
Primitive cut-off                           ...     2.500000e-12
Primitive pair pre-selection threshold      ...     2.500000e-12

Calculating pre-screening integrals         ... done (  0.1 sec) Dimension = 56
Organizing shell pair data                  ... done (  0.2 sec)
Shell pair information
Total number of shell pairs                 ...      1596
Shell pairs after pre-screening             ...      1418
Total number of primitive shell pairs       ...      5564
Primitive shell pairs kept                  ...      3633
          la=0 lb=0:    392 shell pairs
          la=1 lb=0:    470 shell pairs
          la=1 lb=1:    136 shell pairs
          la=2 lb=0:    256 shell pairs
          la=2 lb=1:    128 shell pairs
          la=2 lb=2:     36 shell pairs

Calculating one electron integrals          ... done (  0.0 sec)
Calculating RI/J V-Matrix + Cholesky decomp.... done (  0.2 sec)
Calculating Nuclear repulsion               ... done (  0.0 sec) ENN=    464.344604039017 Eh

SHARK setup successfully completed in   0.8 seconds

Maximum memory used throughout the entire GTOINT-calculation: 10.2 MB


           ************************************************************
           *        Program running with 4 parallel MPI-processes     *
           *              working on a common directory               *
           ************************************************************
-------------------------------------------------------------------------------
                                 ORCA SCF
-------------------------------------------------------------------------------

------------
SCF SETTINGS
------------
Hamiltonian:
 Density Functional     Method          .... DFT(GTOs)
 Exchange Functional    Exchange        .... PBE
   PBE kappa parameter   XKappa         ....  1.024500
   PBE mue parameter    XMuePBE         ....  0.123457
 Correlation Functional Correlation     .... PBE
   PBE beta parameter  CBetaPBE         ....  0.030000
 LDA part of GGA corr.  LDAOpt          .... PW91-LDA
 Gradients option       PostSCFGGA      .... off
 Hybrid DFT is turned on
   Fraction HF Exchange ScalHFX         ....  0.420000
   Scaling of DF-GGA-X  ScalDFX         ....  0.580000
   Scaling of DF-GGA-C  ScalDFC         ....  1.000000
   Scaling of DF-LDA-C  ScalLDAC        ....  1.000000
   Perturbative correction              ....  0.000000
   Density functional embedding theory  .... OFF
 RI-approximation to the Coulomb term is turned on
   Number of AuxJ basis functions       .... 392
   RIJ-ON(X) (HFX calculated with O(N)) .... on
   Number of AuxJ basis functions       .... 392
   RIJ-COSX (HFX calculated with COS-X)).... on


General Settings:
 Integral files         IntName         .... pbeh-3c
 Hartree-Fock type      HFTyp           .... RHF
 Total Charge           Charge          ....    0
 Multiplicity           Mult            ....    1
 Number of Electrons    NEL             ....   66
 Basis Dimension        Dim             ....  120
 Nuclear Repulsion      ENuc            ....    464.3446040390 Eh

Convergence Acceleration:
 DIIS                   CNVDIIS         .... on
   Start iteration      DIISMaxIt       ....    12
   Startup error        DIISStart       ....  0.200000
   # of expansion vecs  DIISMaxEq       ....     5
   Bias factor          DIISBfac        ....   1.050
   Max. coefficient     DIISMaxC        ....  10.000
 Trust-Rad. Augm. Hess. CNVTRAH         .... auto
   Auto Start mean grad. ratio tolernc. ....  1.125000
   Auto Start start iteration           ....    20
   Auto Start num. interpolation iter.  ....    10
   Max. Number of Micro iterations      ....    16
   Max. Number of Macro iterations      .... Maxiter - #DIIS iter
   Number of Davidson start vectors     ....     2
   Converg. threshold I  (grad. norm)   ....   1.000e-05
   Converg. threshold II (energy diff.) ....   1.000e-08
   Grad. Scal. Fac. for Micro threshold ....   0.100
   Minimum threshold for Micro iter.    ....   0.010
   NR start threshold (gradient norm)   ....   0.001
   Initial trust radius                 ....   0.400
   Minimum AH scaling param. (alpha)    ....   1.000
   Maximum AH scaling param. (alpha)    .... 1000.000
   Orbital update algorithm             .... Taylor
   White noise on init. David. guess    .... on
   Maximum white noise                  ....   0.010
   Quad. conv. algorithm                .... NR
   COSX micro iterations for RIJONX calc.... off
 SOSCF                  CNVSOSCF        .... on
   Start iteration      SOSCFMaxIt      ....   150
   Startup grad/error   SOSCFStart      ....  0.003300
 Level Shifting         CNVShift        .... on
   Level shift para.    LevelShift      ....    0.2500
   Turn off err/grad.   ShiftErr        ....    0.0010
 Zerner damping         CNVZerner       .... off
 Static damping         CNVDamp         .... on
   Fraction old density DampFac         ....    0.7000
   Max. Damping (<1)    DampMax         ....    0.9800
   Min. Damping (>=0)   DampMin         ....    0.0000
   Turn off err/grad.   DampErr         ....    0.1000
 Fernandez-Rico         CNVRico         .... off

SCF Procedure:
 Maximum # iterations   MaxIter         ....   125
 SCF integral mode      SCFMode         .... Direct
   Integral package                     .... SHARK and LIBINT hybrid scheme
 Reset frequency        DirectResetFreq ....    20
 Integral Threshold     Thresh          ....  2.500e-11 Eh
 Primitive CutOff       TCut            ....  2.500e-12 Eh

Convergence Tolerance:
 Convergence Check Mode ConvCheckMode   .... Total+1el-Energy
 Convergence forced     ConvForced      .... 0
 Energy Change          TolE            ....  1.000e-08 Eh
 1-El. energy change                    ....  1.000e-05 Eh
 Orbital Gradient       TolG            ....  1.000e-05
 Orbital Rotation angle TolX            ....  1.000e-05
 DIIS Error             TolErr          ....  5.000e-07


Diagonalization of the overlap matrix:
Smallest eigenvalue                        ... 3.359e-03
Time for diagonalization                   ...    0.002 sec
Threshold for overlap eigenvalues          ... 1.000e-08
Number of eigenvalues below threshold      ... 0
Time for construction of square roots      ...    0.052 sec
Total time needed                          ...    0.054 sec

--------------------------------
INITIAL GUESS: MINIMAL BASIS EHT
--------------------------------
The minimal basis has 40 functions
EHT matrix was diagonalized
Basis set overlap was calculated now projecting the orbitals
Using GuessMode=FMatrix for the initial guess
C*T matrix was formed
Effective Fockian was calculated
Effective Fockian was diagonalized
Initial density was built
                      ------------------
                      INITIAL GUESS DONE
                      ------------------
-------------------
DFT GRID GENERATION
-------------------

General Integration Accuracy     IntAcc      ... 4.959
Radial Grid Type                 RadialGrid  ... OptM3 with GC (2021)
Angular Grid (max. ang.)         AngularGrid ... 6 (Lebedev-590)
Angular grid pruning method      GridPruning ... 4 (adaptive)
Weight generation scheme         WeightScheme... Becke
Basis function cutoff            BFCut       ... 1.0000e-11
Integration weight cutoff        WCut        ... 1.0000e-14
Angular grids for H and He will be reduced by one unit
Partially contracted basis set               ... off
Rotationally invariant grid construction     ... off

Total number of grid points                  ...   115788
Total number of batches                      ...     1814
Average number of points per batch           ...       63
Average number of grid points per atom       ...    14474
Time for grid setup =    2.188 sec

--------------------
COSX GRID GENERATION
--------------------

GRIDX 1
-------
General Integration Accuracy     IntAcc      ... 4.020
Radial Grid Type                 RadialGrid  ... OptM3 with GC (2021)
Angular Grid (max. ang.)         AngularGrid ... 2 (Lebedev-110)
Angular grid pruning method      GridPruning ... 4 (adaptive)
Weight generation scheme         WeightScheme... Becke
Basis function cutoff            BFCut       ... 1.0000e-11
Integration weight cutoff        WCut        ... 1.0000e-14
Angular grids for H and He will be reduced by one unit
Partially contracted basis set               ... on
Rotationally invariant grid construction     ... off

Total number of grid points                  ...    14814
Total number of batches                      ...      236
Average number of points per batch           ...       62
Average number of grid points per atom       ...     1852
UseSFitting                                  ... on

GRIDX 2
-------
General Integration Accuracy     IntAcc      ... 4.338
Radial Grid Type                 RadialGrid  ... OptM3 with GC (2021)
Angular Grid (max. ang.)         AngularGrid ... 3 (Lebedev-194)
Angular grid pruning method      GridPruning ... 4 (adaptive)
Weight generation scheme         WeightScheme... Becke
Basis function cutoff            BFCut       ... 1.0000e-11
Integration weight cutoff        WCut        ... 1.0000e-14
Angular grids for H and He will be reduced by one unit
Partially contracted basis set               ... on
Rotationally invariant grid construction     ... off

Total number of grid points                  ...    32934
Total number of batches                      ...      518
Average number of points per batch           ...       63
Average number of grid points per atom       ...     4117
UseSFitting                                  ... on

GRIDX 3
-------
General Integration Accuracy     IntAcc      ... 4.871
Radial Grid Type                 RadialGrid  ... OptM3 with GC (2021)
Angular Grid (max. ang.)         AngularGrid ... 4 (Lebedev-302)
Angular grid pruning method      GridPruning ... 4 (adaptive)
Weight generation scheme         WeightScheme... Becke
Basis function cutoff            BFCut       ... 1.0000e-11
Integration weight cutoff        WCut        ... 1.0000e-14
Angular grids for H and He will be reduced by one unit
Partially contracted basis set               ... on
Rotationally invariant grid construction     ... off

Total number of grid points                  ...    58146
Total number of batches                      ...      911
Average number of points per batch           ...       63
Average number of grid points per atom       ...     7268
UseSFitting                                  ... on

Time for X-Grid setup             =    2.382 sec

--------------
SCF ITERATIONS
--------------
ITER       Energy         Delta-E        Max-DP      RMS-DP      [F,P]     Damp
               ***  Starting incremental Fock matrix formation  ***
  0   -671.2095093038   0.000000000000 0.19033341  0.01010212  0.6231937 0.7000
  1   -672.3534178172  -1.143908513407 0.08682669  0.00531535  0.2980571 0.7000
  2   -672.8545005629  -0.501082745664 0.04633271  0.00281525  0.2130508 0.7000
                               ***Turning on DIIS***
  3   -673.1992068350  -0.344706272072 0.03250603  0.00179711  0.1494930 0.7000
  4   -673.4454710593  -0.246264224367 0.02559836  0.00128397  0.1041701 0.7000
  5   -673.6188421006  -0.173371041230 0.05863158  0.00304241  0.0726720 0.0000
                      *** Initiating the SOSCF procedure ***
                           *** Shutting down DIIS ***
                      *** Re-Reading the Fockian *** 
                      *** Removing any level shift *** 
ITER      Energy       Delta-E        Grad      Rot      Max-DP    RMS-DP
  6   -674.02625228  -0.4074101831  0.001295  0.001295  0.001218  0.000077
               *** Restarting incremental Fock matrix formation ***
  7   -674.02629769  -0.0000454088  0.000520  0.000684  0.000634  0.000033
  8   -674.02630048  -0.0000027858  0.000156  0.000239  0.000237  0.000014
  9   -674.02630074  -0.0000002578  0.000118  0.000105  0.000111  0.000006
 10   -674.02630093  -0.0000001890  0.000009  0.000010  0.000013  0.000001
 11   -674.02630093  -0.0000000021  0.000005  0.000003  0.000005  0.000000
                 **** Energy Check signals convergence ****
              ***Rediagonalizing the Fockian in SOSCF/NRSCF***

               *****************************************************
               *                     SUCCESS                       *
               *           SCF CONVERGED AFTER  12 CYCLES          *
               *****************************************************

Old exchange energy                            =    -29.737117317 Eh
New exchange energy                            =    -29.737141336 Eh
Exchange energy change after final integration =     -0.000024020 Eh
Total energy after final integration           =   -674.026324942 Eh
Final COS-X integration done in                =     3.248 sec

----------------
TOTAL SCF ENERGY
----------------

Total Energy       :         -674.02632494 Eh          -18341.18875 eV

Components:
Nuclear Repulsion  :          464.34460404 Eh           12635.45905 eV
Electronic Energy  :        -1138.37092898 Eh          -30976.64780 eV
One Electron Energy:        -1861.11094212 Eh          -50643.40340 eV
Two Electron Energy:          722.74001314 Eh           19666.75560 eV
Max COSX asymmetry :            0.00000131 Eh               0.00004 eV

Virial components:
Potential Energy   :        -1344.33415694 Eh          -36581.19216 eV
Kinetic Energy     :          670.30783200 Eh           18240.00341 eV
Virial Ratio       :            2.00554744


DFT components:
N(Alpha)           :       32.999998492828 electrons
N(Beta)            :       32.999998492828 electrons
N(Total)           :       65.999996985657 electrons
E(X)               :      -39.671147353650 Eh       
E(C)               :       -3.120546906611 Eh       
E(XC)              :      -42.791694260261 Eh       
DFET-embed. en.    :        0.000000000000 Eh       

---------------
SCF CONVERGENCE
---------------

  Last Energy change         ...    5.0047e-09  Tolerance :   1.0000e-08
  Last MAX-Density change    ...    1.1102e-15  Tolerance :   1.0000e-07
  Last RMS-Density change    ...    5.1762e-17  Tolerance :   5.0000e-09
  Last Orbital Gradient      ...    1.9856e-07  Tolerance :   1.0000e-05
  Last Orbital Rotation      ...    1.9692e-07  Tolerance :   1.0000e-05

             **** THE GBW FILE WAS UPDATED (pbeh-3c.gbw) ****
             **** DENSITY pbeh-3c.scfp WAS UPDATED ****
             **** ENERGY FILE WAS UPDATED (pbeh-3c.en.tmp) ****
             **** THE GBW FILE WAS UPDATED (pbeh-3c.gbw) ****
             **** DENSITY pbeh-3c.scfp WAS UPDATED ****
----------------
ORBITAL ENERGIES
----------------

  NO   OCC          E(Eh)            E(eV) 
   0   2.0000     -25.165540      -684.7891 
   1   2.0000     -25.165466      -684.7871 
   2   2.0000     -25.165398      -684.7853 
   3   2.0000     -25.165395      -684.7852 
   4   2.0000     -25.165387      -684.7850 
   5   2.0000     -25.165384      -684.7849 
   6   2.0000     -10.735370      -292.1243 
   7   2.0000     -10.735164      -292.1187 
   8   2.0000      -1.497028       -40.7362 
   9   2.0000      -1.472332       -40.0642 
  10   2.0000      -1.394323       -37.9415 
  11   2.0000      -1.394318       -37.9413 
  12   2.0000      -1.383350       -37.6429 
  13   2.0000      -1.383345       -37.6427 
  14   2.0000      -0.896215       -24.3872 
  15   2.0000      -0.791584       -21.5401 
  16   2.0000      -0.740176       -20.1412 
  17   2.0000      -0.719386       -19.5755 
  18   2.0000      -0.719385       -19.5755 
  19   2.0000      -0.688244       -18.7281 
  20   2.0000      -0.688243       -18.7280 
  21   2.0000      -0.594458       -16.1760 
  22   2.0000      -0.580134       -15.7863 
  23   2.0000      -0.580132       -15.7862 
  24   2.0000      -0.571115       -15.5408 
  25   2.0000      -0.571114       -15.5408 
  26   2.0000      -0.547446       -14.8968 
  27   2.0000      -0.547444       -14.8967 
  28   2.0000      -0.524018       -14.2593 
  29   2.0000      -0.524013       -14.2591 
  30   2.0000      -0.517830       -14.0909 
  31   2.0000      -0.510322       -13.8866 
  32   2.0000      -0.459102       -12.4928 
  33   0.0000       0.126002         3.4287 
  34   0.0000       0.126002         3.4287 
  35   0.0000       0.234256         6.3744 
  36   0.0000       0.238554         6.4914 
  37   0.0000       0.266978         7.2648 
  38   0.0000       0.306858         8.3500 
  39   0.0000       0.306859         8.3501 
  40   0.0000       0.390571        10.6280 
  41   0.0000       0.410441        11.1687 
  42   0.0000       0.465772        12.6743 
  43   0.0000       0.465773        12.6743 
  44   0.0000       0.552923        15.0458 
  45   0.0000       0.552924        15.0458 
  46   0.0000       0.638475        17.3738 
  47   0.0000       0.717495        19.5240 
  48   0.0000       0.884635        24.0721 
  49   0.0000       0.884636        24.0722 
  50   0.0000       0.998329        27.1659 
  51   0.0000       0.998335        27.1661 
  52   0.0000       1.030090        28.0302 
  53   0.0000       1.036953        28.2169 
  54   0.0000       1.036954        28.2170 
  55   0.0000       1.090982        29.6871 
  56   0.0000       1.090984        29.6872 
  57   0.0000       1.114700        30.3325 
  58   0.0000       1.135850        30.9080 
  59   0.0000       1.136399        30.9230 
  60   0.0000       1.136401        30.9230 
  61   0.0000       1.159120        31.5413 
  62   0.0000       1.184231        32.2246 
  63   0.0000       1.184236        32.2247 
  64   0.0000       1.213528        33.0218 
  65   0.0000       1.228971        33.4420 
  66   0.0000       1.230055        33.4715 
  67   0.0000       1.230060        33.4716 
  68   0.0000       1.233524        33.5659 
  69   0.0000       1.233974        33.5781 
  70   0.0000       1.233974        33.5781 
  71   0.0000       1.248995        33.9869 
  72   0.0000       1.264658        34.4131 
  73   0.0000       1.264670        34.4134 
  74   0.0000       1.311996        35.7012 
  75   0.0000       1.312003        35.7014 
  76   0.0000       1.353311        36.8255 
  77   0.0000       1.353316        36.8256 
  78   0.0000       1.388137        37.7731 
  79   0.0000       1.388147        37.7734 
  80   0.0000       1.402060        38.1520 
  81   0.0000       1.541815        41.9549 
  82   0.0000       1.612227        43.8709 
  83   0.0000       1.612234        43.8711 
  84   0.0000       1.621395        44.1204 
  85   0.0000       1.693195        46.0742 
  86   0.0000       1.693204        46.0744 
  87   0.0000       1.838166        50.0190 
  88   0.0000       1.858344        50.5681 
  89   0.0000       1.885471        51.3063 
  90   0.0000       1.960940        53.3599 
  91   0.0000       2.054540        55.9069 
  92   0.0000       2.054540        55.9069 
  93   0.0000       2.095681        57.0264 
  94   0.0000       2.095688        57.0266 
  95   0.0000       2.115027        57.5528 
  96   0.0000       2.242822        61.0303 
  97   0.0000       2.242834        61.0306 
  98   0.0000       2.382821        64.8399 
  99   0.0000       2.448275        66.6209 
 100   0.0000       2.448288        66.6213 
 101   0.0000       2.593638        70.5765 
 102   0.0000       2.593648        70.5768 
 103   0.0000       2.643943        71.9454 
 104   0.0000       2.643954        71.9456 
 105   0.0000       2.767027        75.2946 
 106   0.0000       2.943649        80.1008 
 107   0.0000       2.943664        80.1012 
 108   0.0000       2.985572        81.2415 
 109   0.0000       2.985578        81.2417 
 110   0.0000       3.234907        88.0263 
 111   0.0000       3.245925        88.3261 
 112   0.0000      13.989826       380.6825 
 113   0.0000      14.268223       388.2581 
 114   0.0000      32.774499       891.8395 
 115   0.0000      32.774507       891.8397 
 116   0.0000      32.791417       892.2998 
 117   0.0000      32.791423       892.3000 
 118   0.0000      33.010829       898.2703 
 119   0.0000      33.203508       903.5134 

                    ********************************
                    * MULLIKEN POPULATION ANALYSIS *
                    ********************************

-----------------------
MULLIKEN ATOMIC CHARGES
-----------------------
   0 C :    0.870680
   1 C :    0.870681
   2 F :   -0.290229
   3 F :   -0.290222
   4 F :   -0.290229
   5 F :   -0.290229
   6 F :   -0.290222
   7 F :   -0.290229
Sum of atomic charges:    0.0000000

--------------------------------
MULLIKEN REDUCED ORBITAL CHARGES
--------------------------------
  0 C s       :     2.788046  s :     2.788046
      pz      :     0.891552  p :     2.158084
      px      :     0.633271
      py      :     0.633260
      dz2     :     0.039644  d :     0.183190
      dxz     :     0.026719
      dyz     :     0.026719
      dx2y2   :     0.045054
      dxy     :     0.045054
  1 C s       :     2.788046  s :     2.788046
      pz      :     0.891552  p :     2.158084
      px      :     0.633271
      py      :     0.633260
      dz2     :     0.039644  d :     0.183190
      dxz     :     0.026719
      dyz     :     0.026719
      dx2y2   :     0.045054
      dxy     :     0.045054
  2 F s       :     3.906435  s :     3.906435
      pz      :     1.872732  p :     5.353653
      px      :     1.647949
      py      :     1.832973
      dz2     :     0.004729  d :     0.030141
      dxz     :     0.007945
      dyz     :     0.004043
      dx2y2   :     0.005739
      dxy     :     0.007686
  3 F s       :     3.906441  s :     3.906441
      pz      :     1.872725  p :     5.353640
      px      :     1.925477
      py      :     1.555438
      dz2     :     0.004729  d :     0.030141
      dxz     :     0.002092
      dyz     :     0.009896
      dx2y2   :     0.008659
      dxy     :     0.004766
  4 F s       :     3.906435  s :     3.906435
      pz      :     1.872732  p :     5.353653
      px      :     1.647949
      py      :     1.832973
      dz2     :     0.004729  d :     0.030141
      dxz     :     0.007945
      dyz     :     0.004043
      dx2y2   :     0.005739
      dxy     :     0.007686
  5 F s       :     3.906435  s :     3.906435
      pz      :     1.872732  p :     5.353654
      px      :     1.647949
      py      :     1.832973
      dz2     :     0.004729  d :     0.030141
      dxz     :     0.007945
      dyz     :     0.004043
      dx2y2   :     0.005739
      dxy     :     0.007686
  6 F s       :     3.906441  s :     3.906441
      pz      :     1.872725  p :     5.353640
      px      :     1.925477
      py      :     1.555438
      dz2     :     0.004729  d :     0.030141
      dxz     :     0.002092
      dyz     :     0.009896
      dx2y2   :     0.008659
      dxy     :     0.004766
  7 F s       :     3.906435  s :     3.906435
      pz      :     1.872732  p :     5.353653
      px      :     1.647949
      py      :     1.832973
      dz2     :     0.004729  d :     0.030141
      dxz     :     0.007945
      dyz     :     0.004043
      dx2y2   :     0.005739
      dxy     :     0.007686


                     *******************************
                     * LOEWDIN POPULATION ANALYSIS *
                     *******************************

----------------------
LOEWDIN ATOMIC CHARGES
----------------------
   0 C :    0.292064
   1 C :    0.292064
   2 F :   -0.097356
   3 F :   -0.097352
   4 F :   -0.097356
   5 F :   -0.097356
   6 F :   -0.097352
   7 F :   -0.097356

-------------------------------
LOEWDIN REDUCED ORBITAL CHARGES
-------------------------------
  0 C s       :     2.768837  s :     2.768837
      pz      :     0.951097  p :     2.522787
      px      :     0.785847
      py      :     0.785843
      dz2     :     0.094998  d :     0.416313
      dxz     :     0.057112
      dyz     :     0.057112
      dx2y2   :     0.103545
      dxy     :     0.103546
  1 C s       :     2.768837  s :     2.768837
      pz      :     0.951097  p :     2.522787
      px      :     0.785847
      py      :     0.785843
      dz2     :     0.094998  d :     0.416313
      dxz     :     0.057112
      dyz     :     0.057112
      dx2y2   :     0.103545
      dxy     :     0.103546
  2 F s       :     3.699921  s :     3.699921
      pz      :     1.851069  p :     5.317185
      px      :     1.652074
      py      :     1.814042
      dz2     :     0.013115  d :     0.080250
      dxz     :     0.020133
      dyz     :     0.008750
      dx2y2   :     0.018172
      dxy     :     0.020080
  3 F s       :     3.699925  s :     3.699925
      pz      :     1.851064  p :     5.317177
      px      :     1.895022
      py      :     1.571092
      dz2     :     0.013115  d :     0.080250
      dxz     :     0.003059
      dyz     :     0.025824
      dx2y2   :     0.021033
      dxy     :     0.017218
  4 F s       :     3.699921  s :     3.699921
      pz      :     1.851069  p :     5.317185
      px      :     1.652074
      py      :     1.814042
      dz2     :     0.013115  d :     0.080250
      dxz     :     0.020133
      dyz     :     0.008750
      dx2y2   :     0.018172
      dxy     :     0.020080
  5 F s       :     3.699921  s :     3.699921
      pz      :     1.851069  p :     5.317185
      px      :     1.652074
      py      :     1.814042
      dz2     :     0.013115  d :     0.080250
      dxz     :     0.020133
      dyz     :     0.008750
      dx2y2   :     0.018172
      dxy     :     0.020080
  6 F s       :     3.699925  s :     3.699925
      pz      :     1.851064  p :     5.317177
      px      :     1.895022
      py      :     1.571092
      dz2     :     0.013115  d :     0.080250
      dxz     :     0.003059
      dyz     :     0.025824
      dx2y2   :     0.021033
      dxy     :     0.017218
  7 F s       :     3.699921  s :     3.699921
      pz      :     1.851069  p :     5.317185
      px      :     1.652074
      py      :     1.814042
      dz2     :     0.013115  d :     0.080250
      dxz     :     0.020133
      dyz     :     0.008750
      dx2y2   :     0.018172
      dxy     :     0.020080


                      *****************************
                      * MAYER POPULATION ANALYSIS *
                      *****************************

  NA   - Mulliken gross atomic population
  ZA   - Total nuclear charge
  QA   - Mulliken gross atomic charge
  VA   - Mayer's total valence
  BVA  - Mayer's bonded valence
  FA   - Mayer's free valence

  ATOM       NA         ZA         QA         VA         BVA        FA
  0 C      5.1293     6.0000     0.8707     4.0897     4.0897     0.0000
  1 C      5.1293     6.0000     0.8707     4.0897     4.0897     0.0000
  2 F      9.2902     9.0000    -0.2902     1.1330     1.1330     0.0000
  3 F      9.2902     9.0000    -0.2902     1.1331     1.1331     0.0000
  4 F      9.2902     9.0000    -0.2902     1.1330     1.1330     0.0000
  5 F      9.2902     9.0000    -0.2902     1.1330     1.1330     0.0000
  6 F      9.2902     9.0000    -0.2902     1.1331     1.1331     0.0000
  7 F      9.2902     9.0000    -0.2902     1.1330     1.1330     0.0000

  Mayer bond orders larger than 0.100000
B(  0-C ,  1-C ) :   0.9042 B(  0-C ,  2-F ) :   1.0243 B(  0-C ,  3-F ) :   1.0243 
B(  0-C ,  4-F ) :   1.0243 B(  1-C ,  5-F ) :   1.0243 B(  1-C ,  6-F ) :   1.0243 
B(  1-C ,  7-F ) :   1.0243 

-------
TIMINGS
-------

Total SCF time: 0 days 0 hours 1 min 5 sec 

Total time                  ....      65.556 sec
Sum of individual times     ....      60.488 sec  ( 92.3%)

Fock matrix formation       ....      51.136 sec  ( 78.0%)
  Split-RI-J                ....       7.464 sec  ( 14.6% of F)
  Chain of spheres X        ....      17.381 sec  ( 34.0% of F)
  XC integration            ....      13.998 sec  ( 27.4% of F)
    Basis function eval.    ....       2.051 sec  ( 14.7% of XC)
    Density eval.           ....       1.444 sec  ( 10.3% of XC)
    XC-Functional eval.     ....       1.022 sec  (  7.3% of XC)
    XC-Potential eval.      ....       0.826 sec  (  5.9% of XC)
Diagonalization             ....       0.681 sec  (  1.0%)
Density matrix formation    ....       0.218 sec  (  0.3%)
Population analysis         ....       0.756 sec  (  1.2%)
Initial guess               ....       0.063 sec  (  0.1%)
Orbital Transformation      ....       0.000 sec  (  0.0%)
Orbital Orthonormalization  ....       0.000 sec  (  0.0%)
DIIS solution               ....       0.845 sec  (  1.3%)
SOSCF solution              ....       2.220 sec  (  3.4%)
Grid generation             ....       4.570 sec  (  7.0%)

Maximum memory used throughout the entire SCF-calculation: 50.4 MB


-------------------------------------------------------------------------------
                          DFT DISPERSION CORRECTION                            
                                                                               
                              DFTD3 V3.1  Rev 1                                
                          USING Becke-Johnson damping                          
-------------------------------------------------------------------------------
The PBEh-3c composite method is recognized
Using three-body term ABC
Active option DFTDOPT                   ...         4   

molecular C6(AA) [au] = 593.855389 


            DFT-D V3
 parameters
 s6 scaling factor         :     1.0000 
 a1 scaling factor         :     0.4860 
 s8 scaling factor         :     0.0000 
 a2 scaling factor         :     4.5000 
 Damping factor alpha9(ATM):    16.0000 
 ad hoc parameters k1-k3   :    16.0000     1.3333    -4.0000 

 Edisp/kcal,au: -1.595453207369  -0.002542516254 
 E6   /kcal   :  -1.597742004 
 E8   /kcal   :  -0.000000000 
 E6(ABC)      :   0.002288797 
 % E8         :   0.000000000 
 % E6(ABC)    :  -0.143457480 

-------------------------   ----------------
Dispersion correction           -0.002542516
-------------------------   ----------------

------------------   -----------------
gCP correction             0.047502643
------------------   -----------------

-------------------------   --------------------
FINAL SINGLE POINT ENERGY      -673.981364814488
-------------------------   --------------------


                            ***************************************
                            *     ORCA property calculations      *
                            ***************************************

                                    ---------------------
                                    Active property flags
                                    ---------------------
   (+) Dipole Moment


------------------------------------------------------------------------------
                       ORCA ELECTRIC PROPERTIES CALCULATION
------------------------------------------------------------------------------

Dipole Moment Calculation                       ... on
Quadrupole Moment Calculation                   ... off
Polarizability Calculation                      ... off
GBWName                                         ... pbeh-3c.gbw
Electron density                                ... pbeh-3c.scfp
The origin for moment calculation is the CENTER OF MASS  = ( 0.000000,  0.000000 -0.000000)

-------------
DIPOLE MOMENT
-------------
                                X             Y             Z
Electronic contribution:      0.00000       0.00000      -0.00000
Nuclear contribution   :      0.00000       0.00000      -0.00000
                        -----------------------------------------
Total Dipole Moment    :      0.00000       0.00000      -0.00000
                        -----------------------------------------
Magnitude (a.u.)       :      0.00000
Magnitude (Debye)      :      0.00000



--------------------
Rotational spectrum 
--------------------
 
Rotational constants in cm-1:     0.095292     0.061695     0.061695 
Rotational constants in MHz :  2856.790298  1849.584096  1849.584090 

 Dipole components along the rotational axes: 
x,y,z [a.u.] :     0.000000     0.000000    -0.000000 
x,y,z [Debye]:     0.000000     0.000000    -0.000000 

 

Timings for individual modules:

Sum of individual times         ...       67.316 sec (=   1.122 min)
GTO integral calculation        ...        1.157 sec (=   0.019 min)   1.7 %
SCF iterations                  ...       66.159 sec (=   1.103 min)  98.3 %
                             ****ORCA TERMINATED NORMALLY****
TOTAL RUN TIME: 0 days 0 hours 1 minutes 13 seconds 55 msec
