
                                 *****************
                                 * O   R   C   A *
                                 *****************

                                            #,                                       
                                            ###                                      
                                            ####                                     
                                            #####                                    
                                            ######                                   
                                           ########,                                 
                                     ,,################,,,,,                         
                               ,,#################################,,                 
                          ,,##########################################,,             
                       ,#########################################, ''#####,          
                    ,#############################################,,   '####,        
                  ,##################################################,,,,####,       
                ,###########''''           ''''###############################       
              ,#####''   ,,,,##########,,,,          '''####'''          '####       
            ,##' ,,,,###########################,,,                        '##       
           ' ,,###''''                  '''############,,,                           
         ,,##''                                '''############,,,,        ,,,,,,###''
      ,#''                                            '''#######################'''  
     '                                                          ''''####''''         
             ,#######,   #######,   ,#######,      ##                                
            ,#'     '#,  ##    ##  ,#'     '#,    #''#        ######   ,####,        
            ##       ##  ##   ,#'  ##            #'  '#       #        #'  '#        
            ##       ##  #######   ##           ,######,      #####,   #    #        
            '#,     ,#'  ##    ##  '#,     ,#' ,#      #,         ##   #,  ,#        
             '#######'   ##     ##  '#######'  #'      '#     #####' # '####'        



                  #######################################################
                  #                        -***-                        #
                  #          Department of theory and spectroscopy      #
                  #    Directorship and core code : Frank Neese         #
                  #        Max Planck Institute fuer Kohlenforschung    #
                  #                Kaiser Wilhelm Platz 1               #
                  #                 D-45470 Muelheim/Ruhr               #
                  #                      Germany                        #
                  #                                                     #
                  #                  All rights reserved                #
                  #                        -***-                        #
                  #######################################################


                         Program Version 5.0.3 -  RELEASE  -


 With contributions from (in alphabetic order):
   Daniel Aravena         : Magnetic Suceptibility
   Michael Atanasov       : Ab Initio Ligand Field Theory (pilot matlab implementation)
   Alexander A. Auer      : GIAO ZORA, VPT2 properties, NMR spectrum
   Ute Becker             : Parallelization
   Giovanni Bistoni       : ED, misc. LED, open-shell LED, HFLD
   Martin Brehm           : Molecular dynamics
   Dmytro Bykov           : SCF Hessian
   Vijay G. Chilkuri      : MRCI spin determinant printing, contributions to CSF-ICE
   Dipayan Datta          : RHF DLPNO-CCSD density
   Achintya Kumar Dutta   : EOM-CC, STEOM-CC
   Dmitry Ganyushin       : Spin-Orbit,Spin-Spin,Magnetic field MRCI
   Miquel Garcia          : C-PCM and meta-GGA Hessian, CC/C-PCM, Gaussian charge scheme
   Yang Guo               : DLPNO-NEVPT2, F12-NEVPT2, CIM, IAO-localization
   Andreas Hansen         : Spin unrestricted coupled pair/coupled cluster methods
   Benjamin Helmich-Paris : MC-RPA, TRAH-SCF, COSX integrals
   Lee Huntington         : MR-EOM, pCC
   Robert Izsak           : Overlap fitted RIJCOSX, COSX-SCS-MP3, EOM
   Marcus Kettner         : VPT2
   Christian Kollmar      : KDIIS, OOCD, Brueckner-CCSD(T), CCSD density, CASPT2, CASPT2-K
   Simone Kossmann        : Meta GGA functionals, TD-DFT gradient, OOMP2, MP2 Hessian
   Martin Krupicka        : Initial AUTO-CI
   Lucas Lang             : DCDCAS
   Marvin Lechner         : AUTO-CI (C++ implementation), FIC-MRCC
   Dagmar Lenk            : GEPOL surface, SMD
   Dimitrios Liakos       : Extrapolation schemes; Compound Job, initial MDCI parallelization
   Dimitrios Manganas     : Further ROCIS development; embedding schemes
   Dimitrios Pantazis     : SARC Basis sets
   Anastasios Papadopoulos: AUTO-CI, single reference methods and gradients
   Taras Petrenko         : DFT Hessian,TD-DFT gradient, ASA, ECA, R-Raman, ABS, FL, XAS/XES, NRVS
   Peter Pinski           : DLPNO-MP2, DLPNO-MP2 Gradient
   Christoph Reimann      : Effective Core Potentials
   Marius Retegan         : Local ZFS, SOC
   Christoph Riplinger    : Optimizer, TS searches, QM/MM, DLPNO-CCSD(T), (RO)-DLPNO pert. Triples
   Tobias Risthaus        : Range-separated hybrids, TD-DFT gradient, RPA, STAB
   Michael Roemelt        : Original ROCIS implementation
   Masaaki Saitow         : Open-shell DLPNO-CCSD energy and density
   Barbara Sandhoefer     : DKH picture change effects
   Avijit Sen             : IP-ROCIS
   Kantharuban Sivalingam : CASSCF convergence, NEVPT2, FIC-MRCI
   Bernardo de Souza      : ESD, SOC TD-DFT
   Georgi Stoychev        : AutoAux, RI-MP2 NMR, DLPNO-MP2 response
   Willem Van den Heuvel  : Paramagnetic NMR
   Boris Wezisla          : Elementary symmetry handling
   Frank Wennmohs         : Technical directorship


 We gratefully acknowledge several colleagues who have allowed us to
 interface, adapt or use parts of their codes:
   Stefan Grimme, W. Hujo, H. Kruse, P. Pracht,  : VdW corrections, initial TS optimization,
                  C. Bannwarth, S. Ehlert          DFT functionals, gCP, sTDA/sTD-DF
   Ed Valeev, F. Pavosevic, A. Kumar             : LibInt (2-el integral package), F12 methods
   Garnet Chan, S. Sharma, J. Yang, R. Olivares  : DMRG
   Ulf Ekstrom                                   : XCFun DFT Library
   Mihaly Kallay                                 : mrcc  (arbitrary order and MRCC methods)
   Jiri Pittner, Ondrej Demel                    : Mk-CCSD
   Frank Weinhold                                : gennbo (NPA and NBO analysis)
   Christopher J. Cramer and Donald G. Truhlar   : smd solvation model
   Lars Goerigk                                  : TD-DFT with DH, B97 family of functionals
   V. Asgeirsson, H. Jonsson                     : NEB implementation
   FAccTs GmbH                                   : IRC, NEB, NEB-TS, DLPNO-Multilevel, CI-OPT
                                                   MM, QMMM, 2- and 3-layer-ONIOM, Crystal-QMMM,
                                                   LR-CPCM, SF, NACMEs, symmetry and pop. for TD-DFT,
                                                   nearIR, NL-DFT gradient (VV10), updates on ESD,
                                                   ML-optimized integration grids
   S Lehtola, MJT Oliveira, MAL Marques          : LibXC Library
   Liviu Ungur et al                             : ANISO software


 Your calculation uses the libint2 library for the computation of 2-el integrals
 For citations please refer to: http://libint.valeyev.net

 Your ORCA version has been built with support for libXC version: 5.1.0
 For citations please refer to: https://tddft.org/programs/libxc/

 This ORCA versions uses:
   CBLAS   interface :  Fast vector & matrix operations
   LAPACKE interface :  Fast linear algebra routines
   SCALAPACK package :  Parallel linear algebra routines
   Shared memory     :  Shared parallel matrices
   BLAS/LAPACK       :  OpenBLAS 0.3.15  USE64BITINT DYNAMIC_ARCH NO_AFFINITY Haswell SINGLE_THREADED
        Core in use  :  Haswell
   Copyright (c) 2011-2014, The OpenBLAS Project




***************************************
The coordinates will be read from file: bzNe.xyz
***************************************


Your calculation utilizes the geometrical counterpoise correction gCP
Please cite in your paper:
H.Kruse, S. Grimme J.Chem.Phys., 136, (2012), 154101 
   

Your calculation utilizes the atom-pairwise dispersion correction
with the Becke-Johnson damping scheme (D3BJ)
Cite in your paper:
S.Grimme, S.Ehrlich, L.Goerigk, J Comput Chem, (2011), 32, 1456–1465 
S.Grimme, J.Antony, S.Ehrlich and H.Krieg, J.Chem.Phys., 132, (2010), 154104 
   

Your calculation employs the composite approach PBEh-3c.
Please cite in your paper:
S. Grimme, J. G. Brandenburg, C. Bannwarth, A. Hansen J.Chem.Phys., 143, (2015), 054107 
   

================================================================================

----- Orbital basis set information -----
Your calculation utilizes the basis: def2-mSVP

----- AuxJ basis set information -----
Your calculation utilizes the auxiliary basis: def2/J
   F. Weigend, Phys. Chem. Chem. Phys. 8, 1057 (2006).

================================================================================
                                        WARNINGS
                       Please study these warnings very carefully!
================================================================================


INFO   : the flag for use of the SHARK integral package has been found!

================================================================================
                                       INPUT FILE
================================================================================
NAME = pbeh-3c.inp
|  1> ! PBEh-3c def2/J TightSCF DefGrid3
|  2> 
|  3> %maxcore 60000
|  4> 
|  5> %pal
|  6> nprocs 4
|  7> end
|  8> 
|  9> *xyzfile 0 1 bzNe.xyz
| 10> 
| 11>                          ****END OF INPUT****
================================================================================

                       ****************************
                       * Single Point Calculation *
                       ****************************

---------------------------------
CARTESIAN COORDINATES (ANGSTROEM)
---------------------------------
  C     -1.198802    0.692129   -0.268659
  C     -1.198802   -0.692129   -0.268659
  C      0.000000   -1.384258   -0.268659
  C      1.198802   -0.692129   -0.268659
  C      1.198802    0.692129   -0.268659
  C      0.000000    1.384258   -0.268659
  H     -2.133155   -1.231578   -0.268659
  H      0.000000   -2.463155   -0.268659
  H      2.133155   -1.231578   -0.268659
  H      2.133155    1.231578   -0.268659
  H      0.000000    2.463155   -0.268659
  H     -2.133155    1.231578   -0.268659
  Ne     0.000000    0.000000    3.223910

----------------------------
CARTESIAN COORDINATES (A.U.)
----------------------------
  NO LB      ZA    FRAG     MASS         X           Y           Z
   0 C     6.0000    0    12.011   -2.265408    1.307934   -0.507692
   1 C     6.0000    0    12.011   -2.265408   -1.307934   -0.507692
   2 C     6.0000    0    12.011    0.000000   -2.615868   -0.507692
   3 C     6.0000    0    12.011    2.265408   -1.307934   -0.507692
   4 C     6.0000    0    12.011    2.265408    1.307934   -0.507692
   5 C     6.0000    0    12.011    0.000000    2.615868   -0.507692
   6 H     1.0000    0     1.008   -4.031079   -2.327344   -0.507692
   7 H     1.0000    0     1.008    0.000000   -4.654689   -0.507692
   8 H     1.0000    0     1.008    4.031079   -2.327344   -0.507692
   9 H     1.0000    0     1.008    4.031079    2.327344   -0.507692
  10 H     1.0000    0     1.008    0.000000    4.654689   -0.507692
  11 H     1.0000    0     1.008   -4.031079    2.327344   -0.507692
  12 Ne   10.0000    0    20.179    0.000000    0.000000    6.092308

--------------------------------
INTERNAL COORDINATES (ANGSTROEM)
--------------------------------
 C      0   0   0     0.000000000000     0.00000000     0.00000000
 C      1   0   0     1.384257600000     0.00000000     0.00000000
 C      2   1   0     1.384257645915   119.99999890     0.00000000
 C      3   2   1     1.384257645915   120.00000219     0.00000000
 C      4   3   2     1.384257600000   119.99999890     0.00000000
 C      1   2   3     1.384257645915   119.99999890     0.00000000
 H      2   1   3     1.078897574295   120.00000079   180.00000000
 H      3   2   1     1.078897600000   119.99999890   180.00000000
 H      4   3   2     1.078897574295   120.00000031   180.00000000
 H      5   4   3     1.078897574295   120.00000079   180.00000000
 H      6   1   2     1.078897600000   119.99999890   180.00000000
 H      1   2   3     1.078897574295   120.00000079   180.00000000
 Ne     3   2   1     3.756888541600    79.38380039    71.05554321

---------------------------
INTERNAL COORDINATES (A.U.)
---------------------------
 C      0   0   0     0.000000000000     0.00000000     0.00000000
 C      1   0   0     2.615867762799     0.00000000     0.00000000
 C      2   1   0     2.615867849566   119.99999890     0.00000000
 C      3   2   1     2.615867849566   120.00000219     0.00000000
 C      4   3   2     2.615867762799   119.99999890     0.00000000
 C      1   2   3     2.615867849566   119.99999890     0.00000000
 H      2   1   3     2.038820941969   120.00000079   180.00000000
 H      3   2   1     2.038820990545   119.99999890   180.00000000
 H      4   3   2     2.038820941969   120.00000031   180.00000000
 H      5   4   3     2.038820941969   120.00000079   180.00000000
 H      6   1   2     2.038820990545   119.99999890   180.00000000
 H      1   2   3     2.038820941969   120.00000079   180.00000000
 Ne     3   2   1     7.099490459290    79.38380039    71.05554321

---------------------
BASIS SET INFORMATION
---------------------
There are 3 groups of distinct atoms

 Group   1 Type C   : 8s4p1d contracted to 4s2p1d pattern {5111/31/1}
 Group   2 Type H   : 4s contracted to 2s pattern {31}
 Group   3 Type Ne  : 8s4p1d contracted to 4s2p1d pattern {5111/31/1}

Atom   0C    basis set group =>   1
Atom   1C    basis set group =>   1
Atom   2C    basis set group =>   1
Atom   3C    basis set group =>   1
Atom   4C    basis set group =>   1
Atom   5C    basis set group =>   1
Atom   6H    basis set group =>   2
Atom   7H    basis set group =>   2
Atom   8H    basis set group =>   2
Atom   9H    basis set group =>   2
Atom  10H    basis set group =>   2
Atom  11H    basis set group =>   2
Atom  12Ne   basis set group =>   3
---------------------------------
AUXILIARY/J BASIS SET INFORMATION
---------------------------------
There are 3 groups of distinct atoms

 Group   1 Type C   : 12s5p4d2f1g contracted to 6s4p3d1f1g pattern {711111/2111/211/2/1}
 Group   2 Type H   : 5s2p1d contracted to 3s1p1d pattern {311/2/1}
 Group   3 Type Ne  : 12s5p4d2f1g contracted to 6s4p3d1f1g pattern {711111/2111/211/2/1}

Atom   0C    basis set group =>   1
Atom   1C    basis set group =>   1
Atom   2C    basis set group =>   1
Atom   3C    basis set group =>   1
Atom   4C    basis set group =>   1
Atom   5C    basis set group =>   1
Atom   6H    basis set group =>   2
Atom   7H    basis set group =>   2
Atom   8H    basis set group =>   2
Atom   9H    basis set group =>   2
Atom  10H    basis set group =>   2
Atom  11H    basis set group =>   2
Atom  12Ne   basis set group =>   3


           ************************************************************
           *        Program running with 4 parallel MPI-processes     *
           *              working on a common directory               *
           ************************************************************
------------------------------------------------------------------------------
                           ORCA GTO INTEGRAL CALCULATION
                           -- RI-GTO INTEGRALS CHOSEN --
------------------------------------------------------------------------------
------------------------------------------------------------------------------
                   ___                                                        
                  /   \      - P O W E R E D   B Y -                         
                 /     \                                                     
                 |  |  |   _    _      __       _____    __    __             
                 |  |  |  | |  | |    /  \     |  _  \  |  |  /  |          
                  \  \/   | |  | |   /    \    | | | |  |  | /  /          
                 / \  \   | |__| |  /  /\  \   | |_| |  |  |/  /          
                |  |  |   |  __  | /  /__\  \  |    /   |      \           
                |  |  |   | |  | | |   __   |  |    \   |  |\   \          
                \     /   | |  | | |  |  |  |  | |\  \  |  | \   \       
                 \___/    |_|  |_| |__|  |__|  |_| \__\ |__|  \__/        
                                                                              
                      - O R C A' S   B I G   F R I E N D -                    
                                      &                                       
                       - I N T E G R A L  F E E D E R -                       
                                                                              
 v1 FN, 2020, v2 2021                                                         
------------------------------------------------------------------------------


Reading SHARK input file pbeh-3c.SHARKINP.tmp ... ok
----------------------
SHARK INTEGRAL PACKAGE
----------------------

Number of atoms                             ...     13
Number of basis functions                   ...    117
Number of shells                            ...     61
Maximum angular momentum                    ...      2
Integral batch strategy                     ... SHARK/LIBINT Hybrid
RI-J (if used) integral strategy            ... SPLIT-RIJ (Revised 2003 algorithm where possible)
Printlevel                                  ...      1
Contraction scheme used                     ... SEGMENTED contraction
Coulomb Range Separation                    ... NOT USED
Exchange Range Separation                   ... NOT USED
Finite Nucleus Model                        ... NOT USED
Auxiliary Coulomb fitting basis             ... AVAILABLE
   # of basis functions in Aux-J            ...    409
   # of shells in Aux-J                     ...    135
   Maximum angular momentum in Aux-J        ...      4
Auxiliary J/K fitting basis                 ... NOT available
Auxiliary Correlation fitting basis         ... NOT available
Auxiliary 'external' fitting basis          ... NOT available
Integral threshold                          ...     2.500000e-11
Primitive cut-off                           ...     2.500000e-12
Primitive pair pre-selection threshold      ...     2.500000e-12

Calculating pre-screening integrals         ... done (  0.0 sec) Dimension = 61
Organizing shell pair data                  ... done (  0.3 sec)
Shell pair information
Total number of shell pairs                 ...      1891
Shell pairs after pre-screening             ...      1714
Total number of primitive shell pairs       ...      6779
Primitive shell pairs kept                  ...      4493
          la=0 lb=0:    691 shell pairs
          la=1 lb=0:    542 shell pairs
          la=1 lb=1:    105 shell pairs
          la=2 lb=0:    250 shell pairs
          la=2 lb=1:     98 shell pairs
          la=2 lb=2:     28 shell pairs

Calculating one electron integrals          ... done (  0.0 sec)
Calculating RI/J V-Matrix + Cholesky decomp.... done (  1.0 sec)
Calculating Nuclear repulsion               ... done (  0.1 sec) ENN=    263.094644059956 Eh

SHARK setup successfully completed in   2.6 seconds

Maximum memory used throughout the entire GTOINT-calculation: 10.4 MB


           ************************************************************
           *        Program running with 4 parallel MPI-processes     *
           *              working on a common directory               *
           ************************************************************
-------------------------------------------------------------------------------
                                 ORCA SCF
-------------------------------------------------------------------------------

------------
SCF SETTINGS
------------
Hamiltonian:
 Density Functional     Method          .... DFT(GTOs)
 Exchange Functional    Exchange        .... PBE
   PBE kappa parameter   XKappa         ....  1.024500
   PBE mue parameter    XMuePBE         ....  0.123457
 Correlation Functional Correlation     .... PBE
   PBE beta parameter  CBetaPBE         ....  0.030000
 LDA part of GGA corr.  LDAOpt          .... PW91-LDA
 Gradients option       PostSCFGGA      .... off
 Hybrid DFT is turned on
   Fraction HF Exchange ScalHFX         ....  0.420000
   Scaling of DF-GGA-X  ScalDFX         ....  0.580000
   Scaling of DF-GGA-C  ScalDFC         ....  1.000000
   Scaling of DF-LDA-C  ScalLDAC        ....  1.000000
   Perturbative correction              ....  0.000000
   Density functional embedding theory  .... OFF
 RI-approximation to the Coulomb term is turned on
   Number of AuxJ basis functions       .... 409
   RIJ-ON(X) (HFX calculated with O(N)) .... on
   Number of AuxJ basis functions       .... 409
   RIJ-COSX (HFX calculated with COS-X)).... on


General Settings:
 Integral files         IntName         .... pbeh-3c
 Hartree-Fock type      HFTyp           .... RHF
 Total Charge           Charge          ....    0
 Multiplicity           Mult            ....    1
 Number of Electrons    NEL             ....   52
 Basis Dimension        Dim             ....  117
 Nuclear Repulsion      ENuc            ....    263.0946440600 Eh

Convergence Acceleration:
 DIIS                   CNVDIIS         .... on
   Start iteration      DIISMaxIt       ....    12
   Startup error        DIISStart       ....  0.200000
   # of expansion vecs  DIISMaxEq       ....     5
   Bias factor          DIISBfac        ....   1.050
   Max. coefficient     DIISMaxC        ....  10.000
 Trust-Rad. Augm. Hess. CNVTRAH         .... auto
   Auto Start mean grad. ratio tolernc. ....  1.125000
   Auto Start start iteration           ....    20
   Auto Start num. interpolation iter.  ....    10
   Max. Number of Micro iterations      ....    16
   Max. Number of Macro iterations      .... Maxiter - #DIIS iter
   Number of Davidson start vectors     ....     2
   Converg. threshold I  (grad. norm)   ....   1.000e-05
   Converg. threshold II (energy diff.) ....   1.000e-08
   Grad. Scal. Fac. for Micro threshold ....   0.100
   Minimum threshold for Micro iter.    ....   0.010
   NR start threshold (gradient norm)   ....   0.001
   Initial trust radius                 ....   0.400
   Minimum AH scaling param. (alpha)    ....   1.000
   Maximum AH scaling param. (alpha)    .... 1000.000
   Orbital update algorithm             .... Taylor
   White noise on init. David. guess    .... on
   Maximum white noise                  ....   0.010
   Quad. conv. algorithm                .... NR
   COSX micro iterations for RIJONX calc.... off
 SOSCF                  CNVSOSCF        .... on
   Start iteration      SOSCFMaxIt      ....   150
   Startup grad/error   SOSCFStart      ....  0.003300
 Level Shifting         CNVShift        .... on
   Level shift para.    LevelShift      ....    0.2500
   Turn off err/grad.   ShiftErr        ....    0.0010
 Zerner damping         CNVZerner       .... off
 Static damping         CNVDamp         .... on
   Fraction old density DampFac         ....    0.7000
   Max. Damping (<1)    DampMax         ....    0.9800
   Min. Damping (>=0)   DampMin         ....    0.0000
   Turn off err/grad.   DampErr         ....    0.1000
 Fernandez-Rico         CNVRico         .... off

SCF Procedure:
 Maximum # iterations   MaxIter         ....   125
 SCF integral mode      SCFMode         .... Direct
   Integral package                     .... SHARK and LIBINT hybrid scheme
 Reset frequency        DirectResetFreq ....    20
 Integral Threshold     Thresh          ....  2.500e-11 Eh
 Primitive CutOff       TCut            ....  2.500e-12 Eh

Convergence Tolerance:
 Convergence Check Mode ConvCheckMode   .... Total+1el-Energy
 Convergence forced     ConvForced      .... 0
 Energy Change          TolE            ....  1.000e-08 Eh
 1-El. energy change                    ....  1.000e-05 Eh
 Orbital Gradient       TolG            ....  1.000e-05
 Orbital Rotation angle TolX            ....  1.000e-05
 DIIS Error             TolErr          ....  5.000e-07


Diagonalization of the overlap matrix:
Smallest eigenvalue                        ... 4.649e-04
Time for diagonalization                   ...    0.004 sec
Threshold for overlap eigenvalues          ... 1.000e-08
Number of eigenvalues below threshold      ... 0
Time for construction of square roots      ...    0.545 sec
Total time needed                          ...    0.550 sec

--------------------------------
INITIAL GUESS: MINIMAL BASIS EHT
--------------------------------
The minimal basis has 41 functions
EHT matrix was diagonalized
Basis set overlap was calculated now projecting the orbitals
Using GuessMode=FMatrix for the initial guess
C*T matrix was formed
Effective Fockian was calculated
Effective Fockian was diagonalized
Initial density was built
                      ------------------
                      INITIAL GUESS DONE
                      ------------------
-------------------
DFT GRID GENERATION
-------------------

General Integration Accuracy     IntAcc      ... 4.959
Radial Grid Type                 RadialGrid  ... OptM3 with GC (2021)
Angular Grid (max. ang.)         AngularGrid ... 6 (Lebedev-590)
Angular grid pruning method      GridPruning ... 4 (adaptive)
Weight generation scheme         WeightScheme... Becke
Basis function cutoff            BFCut       ... 1.0000e-11
Integration weight cutoff        WCut        ... 1.0000e-14
Angular grids for H and He will be reduced by one unit
Partially contracted basis set               ... off
Rotationally invariant grid construction     ... off

Total number of grid points                  ...   152657
Total number of batches                      ...     2390
Average number of points per batch           ...       63
Average number of grid points per atom       ...    11743
Time for grid setup =    3.198 sec

--------------------
COSX GRID GENERATION
--------------------

GRIDX 1
-------
General Integration Accuracy     IntAcc      ... 4.020
Radial Grid Type                 RadialGrid  ... OptM3 with GC (2021)
Angular Grid (max. ang.)         AngularGrid ... 2 (Lebedev-110)
Angular grid pruning method      GridPruning ... 4 (adaptive)
Weight generation scheme         WeightScheme... Becke
Basis function cutoff            BFCut       ... 1.0000e-11
Integration weight cutoff        WCut        ... 1.0000e-14
Angular grids for H and He will be reduced by one unit
Partially contracted basis set               ... on
Rotationally invariant grid construction     ... off

Total number of grid points                  ...    17235
Total number of batches                      ...      276
Average number of points per batch           ...       62
Average number of grid points per atom       ...     1326
UseSFitting                                  ... on

GRIDX 2
-------
General Integration Accuracy     IntAcc      ... 4.338
Radial Grid Type                 RadialGrid  ... OptM3 with GC (2021)
Angular Grid (max. ang.)         AngularGrid ... 3 (Lebedev-194)
Angular grid pruning method      GridPruning ... 4 (adaptive)
Weight generation scheme         WeightScheme... Becke
Basis function cutoff            BFCut       ... 1.0000e-11
Integration weight cutoff        WCut        ... 1.0000e-14
Angular grids for H and He will be reduced by one unit
Partially contracted basis set               ... on
Rotationally invariant grid construction     ... off

Total number of grid points                  ...    37926
Total number of batches                      ...      598
Average number of points per batch           ...       63
Average number of grid points per atom       ...     2917
UseSFitting                                  ... on

GRIDX 3
-------
General Integration Accuracy     IntAcc      ... 4.871
Radial Grid Type                 RadialGrid  ... OptM3 with GC (2021)
Angular Grid (max. ang.)         AngularGrid ... 4 (Lebedev-302)
Angular grid pruning method      GridPruning ... 4 (adaptive)
Weight generation scheme         WeightScheme... Becke
Basis function cutoff            BFCut       ... 1.0000e-11
Integration weight cutoff        WCut        ... 1.0000e-14
Angular grids for H and He will be reduced by one unit
Partially contracted basis set               ... on
Rotationally invariant grid construction     ... off

Total number of grid points                  ...    72074
Total number of batches                      ...     1130
Average number of points per batch           ...       63
Average number of grid points per atom       ...     5544
UseSFitting                                  ... on

Time for X-Grid setup             =    5.914 sec

--------------
SCF ITERATIONS
--------------
ITER       Energy         Delta-E        Max-DP      RMS-DP      [F,P]     Damp
               ***  Starting incremental Fock matrix formation  ***
  0   -359.5834245522   0.000000000000 0.13846775  0.00457326  0.6278189 0.7000
  1   -359.8525252938  -0.269100741630 0.07085944  0.00304601  0.3080750 0.7000
  2   -360.0258869013  -0.173361607428 0.03434767  0.00212603  0.2078126 0.7000
                               ***Turning on DIIS***
  3   -360.1457714592  -0.119884557949 0.02226553  0.00153674  0.1459311 0.7000
  4   -360.2301668930  -0.084395433734 0.01776864  0.00119387  0.1024703 0.7000
  5   -360.2897159859  -0.059549092978 0.04430397  0.00296339  0.0718314 0.0000
  6   -360.4311167343  -0.141400748398 0.00242440  0.00010008  0.0039731 0.0000
                      *** Initiating the SOSCF procedure ***
                           *** Shutting down DIIS ***
                      *** Re-Reading the Fockian *** 
                      *** Removing any level shift *** 
ITER      Energy       Delta-E        Grad      Rot      Max-DP    RMS-DP
  7   -360.43116092  -0.0000441812  0.001118  0.001118  0.001102  0.000034
               *** Restarting incremental Fock matrix formation ***
  8   -360.43116618  -0.0000052638  0.000453  0.000251  0.000551  0.000017
  9   -360.43116691  -0.0000007338  0.000347  0.000097  0.000247  0.000006
 10   -360.43116716  -0.0000002454  0.000010  0.000012  0.000012  0.000001
                  ***Gradient check signals convergence***
              ***Rediagonalizing the Fockian in SOSCF/NRSCF***

               *****************************************************
               *                     SUCCESS                       *
               *           SCF CONVERGED AFTER  11 CYCLES          *
               *****************************************************

Old exchange energy                            =    -19.051037146 Eh
New exchange energy                            =    -19.051021944 Eh
Exchange energy change after final integration =      0.000015202 Eh
Total energy after final integration           =   -360.431151959 Eh
Final COS-X integration done in                =     2.224 sec

----------------
TOTAL SCF ENERGY
----------------

Total Energy       :         -360.43115196 Eh           -9807.83027 eV

Components:
Nuclear Repulsion  :          263.09464406 Eh            7159.16923 eV
Electronic Energy  :         -623.52579602 Eh          -16966.99950 eV
One Electron Energy:        -1015.86162910 Eh          -27643.00027 eV
Two Electron Energy:          392.33583309 Eh           10676.00078 eV
Max COSX asymmetry :            0.00000322 Eh               0.00009 eV

Virial components:
Potential Energy   :         -718.56716253 Eh          -19553.20656 eV
Kinetic Energy     :          358.13601057 Eh            9745.37629 eV
Virial Ratio       :            2.00640857


DFT components:
N(Alpha)           :       26.000014072604 electrons
N(Beta)            :       26.000014072604 electrons
N(Total)           :       52.000028145208 electrons
E(X)               :      -25.305860344335 Eh       
E(C)               :       -2.283882659416 Eh       
E(XC)              :      -27.589743003751 Eh       
DFET-embed. en.    :        0.000000000000 Eh       

---------------
SCF CONVERGENCE
---------------

  Last Energy change         ...   -2.0636e-09  Tolerance :   1.0000e-08
  Last MAX-Density change    ...    1.3323e-15  Tolerance :   1.0000e-07
  Last RMS-Density change    ...    3.6208e-17  Tolerance :   5.0000e-09
  Last Orbital Gradient      ...    8.4600e-07  Tolerance :   1.0000e-05
  Last Orbital Rotation      ...    8.5187e-07  Tolerance :   1.0000e-05

             **** THE GBW FILE WAS UPDATED (pbeh-3c.gbw) ****
             **** DENSITY pbeh-3c.scfp WAS UPDATED ****
             **** ENERGY FILE WAS UPDATED (pbeh-3c.en.tmp) ****
             **** THE GBW FILE WAS UPDATED (pbeh-3c.gbw) ****
             **** DENSITY pbeh-3c.scfp WAS UPDATED ****
----------------
ORBITAL ENERGIES
----------------

  NO   OCC          E(Eh)            E(eV) 
   0   2.0000     -31.388761      -854.1316 
   1   2.0000     -10.445663      -284.2409 
   2   2.0000     -10.445419      -284.2343 
   3   2.0000     -10.445418      -284.2343 
   4   2.0000     -10.444761      -284.2164 
   5   2.0000     -10.444760      -284.2164 
   6   2.0000     -10.444511      -284.2096 
   7   2.0000      -1.555802       -42.3355 
   8   2.0000      -0.957040       -26.0424 
   9   2.0000      -0.837951       -22.8018 
  10   2.0000      -0.837951       -22.8018 
  11   2.0000      -0.680242       -18.5103 
  12   2.0000      -0.680242       -18.5103 
  13   2.0000      -0.616107       -16.7651 
  14   2.0000      -0.616098       -16.7649 
  15   2.0000      -0.615764       -16.7558 
  16   2.0000      -0.594783       -16.1849 
  17   2.0000      -0.524236       -14.2652 
  18   2.0000      -0.511157       -13.9093 
  19   2.0000      -0.482706       -13.1351 
  20   2.0000      -0.482704       -13.1350 
  21   2.0000      -0.424005       -11.5378 
  22   2.0000      -0.397931       -10.8282 
  23   2.0000      -0.397930       -10.8282 
  24   2.0000      -0.293720        -7.9925 
  25   2.0000      -0.293717        -7.9924 
  26   0.0000       0.021466         0.5841 
  27   0.0000       0.021466         0.5841 
  28   0.0000       0.141328         3.8457 
  29   0.0000       0.201287         5.4773 
  30   0.0000       0.202509         5.5105 
  31   0.0000       0.202512         5.5106 
  32   0.0000       0.226526         6.1641 
  33   0.0000       0.226531         6.1642 
  34   0.0000       0.258007         7.0207 
  35   0.0000       0.329427         8.9642 
  36   0.0000       0.329438         8.9645 
  37   0.0000       0.332968         9.0605 
  38   0.0000       0.332974         9.0607 
  39   0.0000       0.447488        12.1768 
  40   0.0000       0.517904        14.0929 
  41   0.0000       0.567510        15.4427 
  42   0.0000       0.586728        15.9657 
  43   0.0000       0.586736        15.9659 
  44   0.0000       0.597147        16.2492 
  45   0.0000       0.626039        17.0354 
  46   0.0000       0.626040        17.0354 
  47   0.0000       0.636636        17.3238 
  48   0.0000       0.636639        17.3238 
  49   0.0000       0.640221        17.4213 
  50   0.0000       0.657749        17.8982 
  51   0.0000       0.657752        17.8983 
  52   0.0000       0.690106        18.7787 
  53   0.0000       0.734417        19.9845 
  54   0.0000       0.748595        20.3703 
  55   0.0000       0.942958        25.6592 
  56   0.0000       0.942962        25.6593 
  57   0.0000       0.965889        26.2832 
  58   0.0000       0.965894        26.2833 
  59   0.0000       0.978043        26.6139 
  60   0.0000       1.043611        28.3981 
  61   0.0000       1.045651        28.4536 
  62   0.0000       1.045652        28.4536 
  63   0.0000       1.094073        29.7713 
  64   0.0000       1.094085        29.7716 
  65   0.0000       1.099763        29.9261 
  66   0.0000       1.099778        29.9265 
  67   0.0000       1.176986        32.0274 
  68   0.0000       1.302838        35.4520 
  69   0.0000       1.302842        35.4521 
  70   0.0000       1.306715        35.5575 
  71   0.0000       1.437149        39.1068 
  72   0.0000       1.469517        39.9876 
  73   0.0000       1.469525        39.9878 
  74   0.0000       1.475620        40.1537 
  75   0.0000       1.541597        41.9490 
  76   0.0000       1.541597        41.9490 
  77   0.0000       1.568765        42.6883 
  78   0.0000       1.568765        42.6883 
  79   0.0000       1.588970        43.2381 
  80   0.0000       1.815633        49.4059 
  81   0.0000       1.824985        49.6604 
  82   0.0000       1.910024        51.9744 
  83   0.0000       2.069704        56.3195 
  84   0.0000       2.069706        56.3196 
  85   0.0000       2.153536        58.6007 
  86   0.0000       2.153537        58.6007 
  87   0.0000       2.209773        60.1310 
  88   0.0000       2.209778        60.1311 
  89   0.0000       2.211013        60.1647 
  90   0.0000       2.211014        60.1647 
  91   0.0000       2.266283        61.6687 
  92   0.0000       2.383466        64.8574 
  93   0.0000       2.383466        64.8574 
  94   0.0000       2.385826        64.9216 
  95   0.0000       2.590619        70.4943 
  96   0.0000       2.590623        70.4944 
  97   0.0000       2.749953        74.8300 
  98   0.0000       2.755261        74.9745 
  99   0.0000       2.755262        74.9745 
 100   0.0000       2.812426        76.5300 
 101   0.0000       2.812427        76.5300 
 102   0.0000       2.849881        77.5492 
 103   0.0000       3.072549        83.6083 
 104   0.0000       3.482716        94.7695 
 105   0.0000       4.205468       114.4366 
 106   0.0000       4.205469       114.4366 
 107   0.0000       4.205841       114.4467 
 108   0.0000       4.205850       114.4470 
 109   0.0000       4.205952       114.4498 
 110   0.0000      13.218208       359.6857 
 111   0.0000      13.639273       371.1435 
 112   0.0000      13.639279       371.1437 
 113   0.0000      14.127519       384.4293 
 114   0.0000      14.127527       384.4295 
 115   0.0000      14.577625       396.6774 
 116   0.0000      39.953235      1087.1828 

                    ********************************
                    * MULLIKEN POPULATION ANALYSIS *
                    ********************************

-----------------------
MULLIKEN ATOMIC CHARGES
-----------------------
   0 C :   -0.219141
   1 C :   -0.219140
   2 C :   -0.219152
   3 C :   -0.219141
   4 C :   -0.219141
   5 C :   -0.219151
   6 H :    0.218993
   7 H :    0.219005
   8 H :    0.218993
   9 H :    0.218993
  10 H :    0.219005
  11 H :    0.218993
  12 Ne:    0.000883
Sum of atomic charges:   -0.0000000

--------------------------------
MULLIKEN REDUCED ORBITAL CHARGES
--------------------------------
  0 C s       :     3.241670  s :     3.241670
      pz      :     0.990731  p :     2.937157
      px      :     1.009127
      py      :     0.937299
      dz2     :     0.003859  d :     0.040314
      dxz     :     0.003510
      dyz     :     0.005854
      dx2y2   :     0.012390
      dxy     :     0.014702
  1 C s       :     3.241669  s :     3.241669
      pz      :     0.990731  p :     2.937157
      px      :     1.009127
      py      :     0.937299
      dz2     :     0.003859  d :     0.040314
      dxz     :     0.003510
      dyz     :     0.005854
      dx2y2   :     0.012390
      dxy     :     0.014702
  2 C s       :     3.241665  s :     3.241665
      pz      :     0.990741  p :     2.937172
      px      :     0.901359
      py      :     1.045071
      dz2     :     0.003859  d :     0.040314
      dxz     :     0.007026
      dyz     :     0.002338
      dx2y2   :     0.015857
      dxy     :     0.011234
  3 C s       :     3.241669  s :     3.241669
      pz      :     0.990731  p :     2.937157
      px      :     1.009127
      py      :     0.937299
      dz2     :     0.003859  d :     0.040314
      dxz     :     0.003510
      dyz     :     0.005854
      dx2y2   :     0.012390
      dxy     :     0.014702
  4 C s       :     3.241669  s :     3.241669
      pz      :     0.990731  p :     2.937157
      px      :     1.009127
      py      :     0.937299
      dz2     :     0.003859  d :     0.040314
      dxz     :     0.003510
      dyz     :     0.005854
      dx2y2   :     0.012390
      dxy     :     0.014702
  5 C s       :     3.241665  s :     3.241665
      pz      :     0.990741  p :     2.937171
      px      :     0.901359
      py      :     1.045071
      dz2     :     0.003859  d :     0.040314
      dxz     :     0.007026
      dyz     :     0.002338
      dx2y2   :     0.015857
      dxy     :     0.011234
  6 H s       :     0.781007  s :     0.781007
  7 H s       :     0.780995  s :     0.780995
  8 H s       :     0.781007  s :     0.781007
  9 H s       :     0.781007  s :     0.781007
 10 H s       :     0.780995  s :     0.780995
 11 H s       :     0.781007  s :     0.781007
 12 Nes       :     3.999948  s :     3.999948
      pz      :     1.999411  p :     5.999167
      px      :     1.999878
      py      :     1.999878
      dz2     :     0.000001  d :     0.000002
      dxz     :     0.000001
      dyz     :     0.000001
      dx2y2   :     0.000000
      dxy     :     0.000000


                     *******************************
                     * LOEWDIN POPULATION ANALYSIS *
                     *******************************

----------------------
LOEWDIN ATOMIC CHARGES
----------------------
   0 C :   -0.135419
   1 C :   -0.135419
   2 C :   -0.135427
   3 C :   -0.135419
   4 C :   -0.135419
   5 C :   -0.135427
   6 H :    0.135267
   7 H :    0.135266
   8 H :    0.135267
   9 H :    0.135267
  10 H :    0.135266
  11 H :    0.135267
  12 Ne:    0.000930

-------------------------------
LOEWDIN REDUCED ORBITAL CHARGES
-------------------------------
  0 C s       :     2.889197  s :     2.889197
      pz      :     0.981987  p :     3.154479
      px      :     1.082639
      py      :     1.089853
      dz2     :     0.006393  d :     0.091744
      dxz     :     0.006255
      dyz     :     0.011872
      dx2y2   :     0.031541
      dxy     :     0.035683
  1 C s       :     2.889197  s :     2.889197
      pz      :     0.981987  p :     3.154479
      px      :     1.082639
      py      :     1.089853
      dz2     :     0.006393  d :     0.091744
      dxz     :     0.006255
      dyz     :     0.011872
      dx2y2   :     0.031541
      dxy     :     0.035683
  2 C s       :     2.889198  s :     2.889198
      pz      :     0.981992  p :     3.154486
      px      :     1.093458
      py      :     1.079036
      dz2     :     0.006393  d :     0.091743
      dxz     :     0.014680
      dyz     :     0.003447
      dx2y2   :     0.037754
      dxy     :     0.029470
  3 C s       :     2.889197  s :     2.889197
      pz      :     0.981987  p :     3.154479
      px      :     1.082639
      py      :     1.089853
      dz2     :     0.006393  d :     0.091744
      dxz     :     0.006255
      dyz     :     0.011872
      dx2y2   :     0.031541
      dxy     :     0.035683
  4 C s       :     2.889197  s :     2.889197
      pz      :     0.981987  p :     3.154479
      px      :     1.082639
      py      :     1.089853
      dz2     :     0.006393  d :     0.091744
      dxz     :     0.006255
      dyz     :     0.011872
      dx2y2   :     0.031541
      dxy     :     0.035683
  5 C s       :     2.889198  s :     2.889198
      pz      :     0.981991  p :     3.154486
      px      :     1.093458
      py      :     1.079036
      dz2     :     0.006393  d :     0.091743
      dxz     :     0.014680
      dyz     :     0.003447
      dx2y2   :     0.037754
      dxy     :     0.029470
  6 H s       :     0.864733  s :     0.864733
  7 H s       :     0.864734  s :     0.864734
  8 H s       :     0.864733  s :     0.864733
  9 H s       :     0.864733  s :     0.864733
 10 H s       :     0.864734  s :     0.864734
 11 H s       :     0.864733  s :     0.864733
 12 Nes       :     3.999903  s :     3.999903
      pz      :     1.999349  p :     5.999165
      px      :     1.999908
      py      :     1.999908
      dz2     :     0.000001  d :     0.000002
      dxz     :     0.000001
      dyz     :     0.000001
      dx2y2   :     0.000000
      dxy     :     0.000000


                      *****************************
                      * MAYER POPULATION ANALYSIS *
                      *****************************

  NA   - Mulliken gross atomic population
  ZA   - Total nuclear charge
  QA   - Mulliken gross atomic charge
  VA   - Mayer's total valence
  BVA  - Mayer's bonded valence
  FA   - Mayer's free valence

  ATOM       NA         ZA         QA         VA         BVA        FA
  0 C      6.2191     6.0000    -0.2191     3.8218     3.8218    -0.0000
  1 C      6.2191     6.0000    -0.2191     3.8218     3.8218    -0.0000
  2 C      6.2192     6.0000    -0.2192     3.8218     3.8218    -0.0000
  3 C      6.2191     6.0000    -0.2191     3.8218     3.8218    -0.0000
  4 C      6.2191     6.0000    -0.2191     3.8218     3.8218    -0.0000
  5 C      6.2192     6.0000    -0.2192     3.8218     3.8218    -0.0000
  6 H      0.7810     1.0000     0.2190     0.9112     0.9112    -0.0000
  7 H      0.7810     1.0000     0.2190     0.9112     0.9112    -0.0000
  8 H      0.7810     1.0000     0.2190     0.9112     0.9112    -0.0000
  9 H      0.7810     1.0000     0.2190     0.9112     0.9112    -0.0000
 10 H      0.7810     1.0000     0.2190     0.9112     0.9112    -0.0000
 11 H      0.7810     1.0000     0.2190     0.9112     0.9112     0.0000
 12 Ne     9.9991    10.0000     0.0009     0.0023     0.0023    -0.0000

  Mayer bond orders larger than 0.100000
B(  0-C ,  1-C ) :   1.4286 B(  0-C ,  5-C ) :   1.4286 B(  0-C , 11-H ) :   0.9202 
B(  1-C ,  2-C ) :   1.4286 B(  1-C ,  6-H ) :   0.9202 B(  2-C ,  3-C ) :   1.4286 
B(  2-C ,  7-H ) :   0.9202 B(  3-C ,  4-C ) :   1.4286 B(  3-C ,  8-H ) :   0.9202 
B(  4-C ,  5-C ) :   1.4286 B(  4-C ,  9-H ) :   0.9202 B(  5-C , 10-H ) :   0.9202 


-------
TIMINGS
-------

Total SCF time: 0 days 0 hours 1 min 15 sec 

Total time                  ....      75.481 sec
Sum of individual times     ....      67.341 sec  ( 89.2%)

Fock matrix formation       ....      54.598 sec  ( 72.3%)
  Split-RI-J                ....       5.772 sec  ( 10.6% of F)
  Chain of spheres X        ....      16.301 sec  ( 29.9% of F)
  XC integration            ....      19.199 sec  ( 35.2% of F)
    Basis function eval.    ....       2.151 sec  ( 11.2% of XC)
    Density eval.           ....       1.338 sec  (  7.0% of XC)
    XC-Functional eval.     ....       0.880 sec  (  4.6% of XC)
    XC-Potential eval.      ....       0.832 sec  (  4.3% of XC)
Diagonalization             ....       0.538 sec  (  0.7%)
Density matrix formation    ....       0.098 sec  (  0.1%)
Population analysis         ....       0.785 sec  (  1.0%)
Initial guess               ....       0.015 sec  (  0.0%)
Orbital Transformation      ....       0.000 sec  (  0.0%)
Orbital Orthonormalization  ....       0.000 sec  (  0.0%)
DIIS solution               ....       1.832 sec  (  2.4%)
SOSCF solution              ....       0.362 sec  (  0.5%)
Grid generation             ....       9.112 sec  ( 12.1%)

Maximum memory used throughout the entire SCF-calculation: 52.1 MB


-------------------------------------------------------------------------------
                          DFT DISPERSION CORRECTION                            
                                                                               
                              DFTD3 V3.1  Rev 1                                
                          USING Becke-Johnson damping                          
-------------------------------------------------------------------------------
The PBEh-3c composite method is recognized
Using three-body term ABC
Active option DFTDOPT                   ...         4   

molecular C6(AA) [au] = 1852.585313 


            DFT-D V3
 parameters
 s6 scaling factor         :     1.0000 
 a1 scaling factor         :     0.4860 
 s8 scaling factor         :     0.0000 
 a2 scaling factor         :     4.5000 
 Damping factor alpha9(ATM):    16.0000 
 ad hoc parameters k1-k3   :    16.0000     1.3333    -4.0000 

 Edisp/kcal,au: -3.934795797947  -0.006270495572 
 E6   /kcal   :  -3.954342645 
 E8   /kcal   :  -0.000000000 
 E6(ABC)      :   0.019546847 
 % E8         :   0.000000000 
 % E6(ABC)    :  -0.496769044 

-------------------------   ----------------
Dispersion correction           -0.006270496
-------------------------   ----------------

------------------   -----------------
gCP correction             0.015396388
------------------   -----------------

-------------------------   --------------------
FINAL SINGLE POINT ENERGY      -360.422026066639
-------------------------   --------------------


                            ***************************************
                            *     ORCA property calculations      *
                            ***************************************

                                    ---------------------
                                    Active property flags
                                    ---------------------
   (+) Dipole Moment


------------------------------------------------------------------------------
                       ORCA ELECTRIC PROPERTIES CALCULATION
------------------------------------------------------------------------------

Dipole Moment Calculation                       ... on
Quadrupole Moment Calculation                   ... off
Polarizability Calculation                      ... off
GBWName                                         ... pbeh-3c.gbw
Electron density                                ... pbeh-3c.scfp
The origin for moment calculation is the CENTER OF MASS  = ( 0.000000,  0.000000  0.847251)

-------------
DIPOLE MOMENT
-------------
                                X             Y             Z
Electronic contribution:     -0.00000      -0.00000       4.45832
Nuclear contribution   :      0.00000       0.00000      -4.45703
                        -----------------------------------------
Total Dipole Moment    :     -0.00000      -0.00000       0.00129
                        -----------------------------------------
Magnitude (a.u.)       :      0.00129
Magnitude (Debye)      :      0.00328



--------------------
Rotational spectrum 
--------------------
 
Rotational constants in cm-1:     0.096448     0.059567     0.059567 
Rotational constants in MHz :  2891.440489  1785.764244  1785.764203 

 Dipole components along the rotational axes: 
x,y,z [a.u.] :     0.001289    -0.000000    -0.000000 
x,y,z [Debye]:     0.003278    -0.000000    -0.000000 

 

Timings for individual modules:

Sum of individual times         ...       79.940 sec (=   1.332 min)
GTO integral calculation        ...        3.787 sec (=   0.063 min)   4.7 %
SCF iterations                  ...       76.153 sec (=   1.269 min)  95.3 %
                             ****ORCA TERMINATED NORMALLY****
TOTAL RUN TIME: 0 days 0 hours 1 minutes 25 seconds 210 msec
