
                                 *****************
                                 * O   R   C   A *
                                 *****************

                                            #,                                       
                                            ###                                      
                                            ####                                     
                                            #####                                    
                                            ######                                   
                                           ########,                                 
                                     ,,################,,,,,                         
                               ,,#################################,,                 
                          ,,##########################################,,             
                       ,#########################################, ''#####,          
                    ,#############################################,,   '####,        
                  ,##################################################,,,,####,       
                ,###########''''           ''''###############################       
              ,#####''   ,,,,##########,,,,          '''####'''          '####       
            ,##' ,,,,###########################,,,                        '##       
           ' ,,###''''                  '''############,,,                           
         ,,##''                                '''############,,,,        ,,,,,,###''
      ,#''                                            '''#######################'''  
     '                                                          ''''####''''         
             ,#######,   #######,   ,#######,      ##                                
            ,#'     '#,  ##    ##  ,#'     '#,    #''#        ######   ,####,        
            ##       ##  ##   ,#'  ##            #'  '#       #        #'  '#        
            ##       ##  #######   ##           ,######,      #####,   #    #        
            '#,     ,#'  ##    ##  '#,     ,#' ,#      #,         ##   #,  ,#        
             '#######'   ##     ##  '#######'  #'      '#     #####' # '####'        



                  #######################################################
                  #                        -***-                        #
                  #          Department of theory and spectroscopy      #
                  #    Directorship and core code : Frank Neese         #
                  #        Max Planck Institute fuer Kohlenforschung    #
                  #                Kaiser Wilhelm Platz 1               #
                  #                 D-45470 Muelheim/Ruhr               #
                  #                      Germany                        #
                  #                                                     #
                  #                  All rights reserved                #
                  #                        -***-                        #
                  #######################################################


                         Program Version 5.0.3 -  RELEASE  -


 With contributions from (in alphabetic order):
   Daniel Aravena         : Magnetic Suceptibility
   Michael Atanasov       : Ab Initio Ligand Field Theory (pilot matlab implementation)
   Alexander A. Auer      : GIAO ZORA, VPT2 properties, NMR spectrum
   Ute Becker             : Parallelization
   Giovanni Bistoni       : ED, misc. LED, open-shell LED, HFLD
   Martin Brehm           : Molecular dynamics
   Dmytro Bykov           : SCF Hessian
   Vijay G. Chilkuri      : MRCI spin determinant printing, contributions to CSF-ICE
   Dipayan Datta          : RHF DLPNO-CCSD density
   Achintya Kumar Dutta   : EOM-CC, STEOM-CC
   Dmitry Ganyushin       : Spin-Orbit,Spin-Spin,Magnetic field MRCI
   Miquel Garcia          : C-PCM and meta-GGA Hessian, CC/C-PCM, Gaussian charge scheme
   Yang Guo               : DLPNO-NEVPT2, F12-NEVPT2, CIM, IAO-localization
   Andreas Hansen         : Spin unrestricted coupled pair/coupled cluster methods
   Benjamin Helmich-Paris : MC-RPA, TRAH-SCF, COSX integrals
   Lee Huntington         : MR-EOM, pCC
   Robert Izsak           : Overlap fitted RIJCOSX, COSX-SCS-MP3, EOM
   Marcus Kettner         : VPT2
   Christian Kollmar      : KDIIS, OOCD, Brueckner-CCSD(T), CCSD density, CASPT2, CASPT2-K
   Simone Kossmann        : Meta GGA functionals, TD-DFT gradient, OOMP2, MP2 Hessian
   Martin Krupicka        : Initial AUTO-CI
   Lucas Lang             : DCDCAS
   Marvin Lechner         : AUTO-CI (C++ implementation), FIC-MRCC
   Dagmar Lenk            : GEPOL surface, SMD
   Dimitrios Liakos       : Extrapolation schemes; Compound Job, initial MDCI parallelization
   Dimitrios Manganas     : Further ROCIS development; embedding schemes
   Dimitrios Pantazis     : SARC Basis sets
   Anastasios Papadopoulos: AUTO-CI, single reference methods and gradients
   Taras Petrenko         : DFT Hessian,TD-DFT gradient, ASA, ECA, R-Raman, ABS, FL, XAS/XES, NRVS
   Peter Pinski           : DLPNO-MP2, DLPNO-MP2 Gradient
   Christoph Reimann      : Effective Core Potentials
   Marius Retegan         : Local ZFS, SOC
   Christoph Riplinger    : Optimizer, TS searches, QM/MM, DLPNO-CCSD(T), (RO)-DLPNO pert. Triples
   Tobias Risthaus        : Range-separated hybrids, TD-DFT gradient, RPA, STAB
   Michael Roemelt        : Original ROCIS implementation
   Masaaki Saitow         : Open-shell DLPNO-CCSD energy and density
   Barbara Sandhoefer     : DKH picture change effects
   Avijit Sen             : IP-ROCIS
   Kantharuban Sivalingam : CASSCF convergence, NEVPT2, FIC-MRCI
   Bernardo de Souza      : ESD, SOC TD-DFT
   Georgi Stoychev        : AutoAux, RI-MP2 NMR, DLPNO-MP2 response
   Willem Van den Heuvel  : Paramagnetic NMR
   Boris Wezisla          : Elementary symmetry handling
   Frank Wennmohs         : Technical directorship


 We gratefully acknowledge several colleagues who have allowed us to
 interface, adapt or use parts of their codes:
   Stefan Grimme, W. Hujo, H. Kruse, P. Pracht,  : VdW corrections, initial TS optimization,
                  C. Bannwarth, S. Ehlert          DFT functionals, gCP, sTDA/sTD-DF
   Ed Valeev, F. Pavosevic, A. Kumar             : LibInt (2-el integral package), F12 methods
   Garnet Chan, S. Sharma, J. Yang, R. Olivares  : DMRG
   Ulf Ekstrom                                   : XCFun DFT Library
   Mihaly Kallay                                 : mrcc  (arbitrary order and MRCC methods)
   Jiri Pittner, Ondrej Demel                    : Mk-CCSD
   Frank Weinhold                                : gennbo (NPA and NBO analysis)
   Christopher J. Cramer and Donald G. Truhlar   : smd solvation model
   Lars Goerigk                                  : TD-DFT with DH, B97 family of functionals
   V. Asgeirsson, H. Jonsson                     : NEB implementation
   FAccTs GmbH                                   : IRC, NEB, NEB-TS, DLPNO-Multilevel, CI-OPT
                                                   MM, QMMM, 2- and 3-layer-ONIOM, Crystal-QMMM,
                                                   LR-CPCM, SF, NACMEs, symmetry and pop. for TD-DFT,
                                                   nearIR, NL-DFT gradient (VV10), updates on ESD,
                                                   ML-optimized integration grids
   S Lehtola, MJT Oliveira, MAL Marques          : LibXC Library
   Liviu Ungur et al                             : ANISO software


 Your calculation uses the libint2 library for the computation of 2-el integrals
 For citations please refer to: http://libint.valeyev.net

 Your ORCA version has been built with support for libXC version: 5.1.0
 For citations please refer to: https://tddft.org/programs/libxc/

 This ORCA versions uses:
   CBLAS   interface :  Fast vector & matrix operations
   LAPACKE interface :  Fast linear algebra routines
   SCALAPACK package :  Parallel linear algebra routines
   Shared memory     :  Shared parallel matrices
   BLAS/LAPACK       :  OpenBLAS 0.3.15  USE64BITINT DYNAMIC_ARCH NO_AFFINITY Haswell SINGLE_THREADED
        Core in use  :  Haswell
   Copyright (c) 2011-2014, The OpenBLAS Project




***************************************
The coordinates will be read from file: P27.xyz
***************************************


Your calculation utilizes the geometrical counterpoise correction gCP
Please cite in your paper:
H.Kruse, S. Grimme J.Chem.Phys., 136, (2012), 154101 
   

Your calculation utilizes the atom-pairwise dispersion correction
with the Becke-Johnson damping scheme (D3BJ)
Cite in your paper:
S.Grimme, S.Ehrlich, L.Goerigk, J Comput Chem, (2011), 32, 1456–1465 
S.Grimme, J.Antony, S.Ehrlich and H.Krieg, J.Chem.Phys., 132, (2010), 154104 
   

Your calculation employs the composite approach PBEh-3c.
Please cite in your paper:
S. Grimme, J. G. Brandenburg, C. Bannwarth, A. Hansen J.Chem.Phys., 143, (2015), 054107 
   

================================================================================

----- Orbital basis set information -----
Your calculation utilizes the basis: def2-mSVP

----- AuxJ basis set information -----
Your calculation utilizes the auxiliary basis: def2/J
   F. Weigend, Phys. Chem. Chem. Phys. 8, 1057 (2006).

================================================================================
                                        WARNINGS
                       Please study these warnings very carefully!
================================================================================


WARNING: your system is open-shell and RHF/RKS was chosen
  ===> : WILL SWITCH to UHF/UKS


INFO   : the flag for use of the SHARK integral package has been found!

================================================================================
                                       INPUT FILE
================================================================================
NAME = pbeh-3c.inp
|  1> ! PBEh-3c def2/J TightSCF DefGrid3
|  2> 
|  3> %maxcore 60000
|  4> 
|  5> %pal
|  6> nprocs 4
|  7> end
|  8> 
|  9> *xyzfile 0 2 P27.xyz
| 10> 
| 11>                          ****END OF INPUT****
================================================================================

                       ****************************
                       * Single Point Calculation *
                       ****************************

---------------------------------
CARTESIAN COORDINATES (ANGSTROEM)
---------------------------------
  C      0.000000    0.000000    0.733897
  N      0.000000    0.000000   -0.679731
  O     -1.097429    0.000000   -1.247602
  O      1.097429    0.000000   -1.247602
  H     -0.961736    0.000000    1.220519
  H      0.961736    0.000000    1.220519

----------------------------
CARTESIAN COORDINATES (A.U.)
----------------------------
  NO LB      ZA    FRAG     MASS         X           Y           Z
   0 C     6.0000    0    12.011    0.000000    0.000000    1.386864
   1 N     7.0000    0    14.007    0.000000    0.000000   -1.284505
   2 O     8.0000    0    15.999   -2.073840    0.000000   -2.357627
   3 O     8.0000    0    15.999    2.073840    0.000000   -2.357627
   4 H     1.0000    0     1.008   -1.817418    0.000000    2.306448
   5 H     1.0000    0     1.008    1.817418    0.000000    2.306448

--------------------------------
INTERNAL COORDINATES (ANGSTROEM)
--------------------------------
 C      0   0   0     0.000000000000     0.00000000     0.00000000
 N      1   0   0     1.413627500000     0.00000000     0.00000000
 O      2   1   0     1.235648644482   117.35959633     0.00000000
 O      2   1   3     1.235648644482   117.35959633   180.00000000
 H      1   2   3     1.077839853545   116.83866481     0.00000000
 H      1   2   3     1.077839853545   116.83866481   180.00000000

---------------------------
INTERNAL COORDINATES (A.U.)
---------------------------
 C      0   0   0     0.000000000000     0.00000000     0.00000000
 N      1   0   0     2.671368830380     0.00000000     0.00000000
 O      2   1   0     2.335037535822   117.35959633     0.00000000
 O      2   1   3     2.335037535822   117.35959633   180.00000000
 H      1   2   3     2.036822139425   116.83866481     0.00000000
 H      1   2   3     2.036822139425   116.83866481   180.00000000

---------------------
BASIS SET INFORMATION
---------------------
There are 4 groups of distinct atoms

 Group   1 Type C   : 8s4p1d contracted to 4s2p1d pattern {5111/31/1}
 Group   2 Type N   : 8s4p1d contracted to 4s2p1d pattern {5111/31/1}
 Group   3 Type O   : 8s4p1d contracted to 4s2p1d pattern {5111/31/1}
 Group   4 Type H   : 4s contracted to 2s pattern {31}

Atom   0C    basis set group =>   1
Atom   1N    basis set group =>   2
Atom   2O    basis set group =>   3
Atom   3O    basis set group =>   3
Atom   4H    basis set group =>   4
Atom   5H    basis set group =>   4
---------------------------------
AUXILIARY/J BASIS SET INFORMATION
---------------------------------
There are 4 groups of distinct atoms

 Group   1 Type C   : 12s5p4d2f1g contracted to 6s4p3d1f1g pattern {711111/2111/211/2/1}
 Group   2 Type N   : 12s5p4d2f1g contracted to 6s4p3d1f1g pattern {711111/2111/211/2/1}
 Group   3 Type O   : 12s5p4d2f1g contracted to 6s4p3d1f1g pattern {711111/2111/211/2/1}
 Group   4 Type H   : 5s2p1d contracted to 3s1p1d pattern {311/2/1}

Atom   0C    basis set group =>   1
Atom   1N    basis set group =>   2
Atom   2O    basis set group =>   3
Atom   3O    basis set group =>   3
Atom   4H    basis set group =>   4
Atom   5H    basis set group =>   4


           ************************************************************
           *        Program running with 4 parallel MPI-processes     *
           *              working on a common directory               *
           ************************************************************
------------------------------------------------------------------------------
                           ORCA GTO INTEGRAL CALCULATION
                           -- RI-GTO INTEGRALS CHOSEN --
------------------------------------------------------------------------------
------------------------------------------------------------------------------
                   ___                                                        
                  /   \      - P O W E R E D   B Y -                         
                 /     \                                                     
                 |  |  |   _    _      __       _____    __    __             
                 |  |  |  | |  | |    /  \     |  _  \  |  |  /  |          
                  \  \/   | |  | |   /    \    | | | |  |  | /  /          
                 / \  \   | |__| |  /  /\  \   | |_| |  |  |/  /          
                |  |  |   |  __  | /  /__\  \  |    /   |      \           
                |  |  |   | |  | | |   __   |  |    \   |  |\   \          
                \     /   | |  | | |  |  |  |  | |\  \  |  | \   \       
                 \___/    |_|  |_| |__|  |__|  |_| \__\ |__|  \__/        
                                                                              
                      - O R C A' S   B I G   F R I E N D -                    
                                      &                                       
                       - I N T E G R A L  F E E D E R -                       
                                                                              
 v1 FN, 2020, v2 2021                                                         
------------------------------------------------------------------------------


Reading SHARK input file pbeh-3c.SHARKINP.tmp ... ok
----------------------
SHARK INTEGRAL PACKAGE
----------------------

Number of atoms                             ...      6
Number of basis functions                   ...     64
Number of shells                            ...     32
Maximum angular momentum                    ...      2
Integral batch strategy                     ... SHARK/LIBINT Hybrid
RI-J (if used) integral strategy            ... SPLIT-RIJ (Revised 2003 algorithm where possible)
Printlevel                                  ...      1
Contraction scheme used                     ... SEGMENTED contraction
Coulomb Range Separation                    ... NOT USED
Exchange Range Separation                   ... NOT USED
Finite Nucleus Model                        ... NOT USED
Auxiliary Coulomb fitting basis             ... AVAILABLE
   # of basis functions in Aux-J            ...    218
   # of shells in Aux-J                     ...     70
   Maximum angular momentum in Aux-J        ...      4
Auxiliary J/K fitting basis                 ... NOT available
Auxiliary Correlation fitting basis         ... NOT available
Auxiliary 'external' fitting basis          ... NOT available
Integral threshold                          ...     2.500000e-11
Primitive cut-off                           ...     2.500000e-12
Primitive pair pre-selection threshold      ...     2.500000e-12

Calculating pre-screening integrals         ... done (  0.0 sec) Dimension = 32
Organizing shell pair data                  ... done (  0.3 sec)
Shell pair information
Total number of shell pairs                 ...       528
Shell pairs after pre-screening             ...       513
Total number of primitive shell pairs       ...      1888
Primitive shell pairs kept                  ...      1467
          la=0 lb=0:    195 shell pairs
          la=1 lb=0:    160 shell pairs
          la=1 lb=1:     36 shell pairs
          la=2 lb=0:     80 shell pairs
          la=2 lb=1:     32 shell pairs
          la=2 lb=2:     10 shell pairs

Calculating one electron integrals          ... done (  0.0 sec)
Calculating RI/J V-Matrix + Cholesky decomp.... done (  0.7 sec)
Calculating Nuclear repulsion               ... done (  0.1 sec) ENN=    117.249857427934 Eh

SHARK setup successfully completed in   2.4 seconds

Maximum memory used throughout the entire GTOINT-calculation: 9.2 MB


           ************************************************************
           *        Program running with 4 parallel MPI-processes     *
           *              working on a common directory               *
           ************************************************************
-------------------------------------------------------------------------------
                                 ORCA SCF
-------------------------------------------------------------------------------

------------
SCF SETTINGS
------------
Hamiltonian:
 Density Functional     Method          .... DFT(GTOs)
 Exchange Functional    Exchange        .... PBE
   PBE kappa parameter   XKappa         ....  1.024500
   PBE mue parameter    XMuePBE         ....  0.123457
 Correlation Functional Correlation     .... PBE
   PBE beta parameter  CBetaPBE         ....  0.030000
 LDA part of GGA corr.  LDAOpt          .... PW91-LDA
 Gradients option       PostSCFGGA      .... off
 Hybrid DFT is turned on
   Fraction HF Exchange ScalHFX         ....  0.420000
   Scaling of DF-GGA-X  ScalDFX         ....  0.580000
   Scaling of DF-GGA-C  ScalDFC         ....  1.000000
   Scaling of DF-LDA-C  ScalLDAC        ....  1.000000
   Perturbative correction              ....  0.000000
   Density functional embedding theory  .... OFF
 RI-approximation to the Coulomb term is turned on
   Number of AuxJ basis functions       .... 218
   RIJ-ON(X) (HFX calculated with O(N)) .... on
   Number of AuxJ basis functions       .... 218
   RIJ-COSX (HFX calculated with COS-X)).... on


General Settings:
 Integral files         IntName         .... pbeh-3c
 Hartree-Fock type      HFTyp           .... UHF
 Total Charge           Charge          ....    0
 Multiplicity           Mult            ....    2
 Number of Electrons    NEL             ....   31
 Basis Dimension        Dim             ....   64
 Nuclear Repulsion      ENuc            ....    117.2498574279 Eh

Convergence Acceleration:
 DIIS                   CNVDIIS         .... on
   Start iteration      DIISMaxIt       ....    12
   Startup error        DIISStart       ....  0.200000
   # of expansion vecs  DIISMaxEq       ....     5
   Bias factor          DIISBfac        ....   1.050
   Max. coefficient     DIISMaxC        ....  10.000
 Trust-Rad. Augm. Hess. CNVTRAH         .... auto
   Auto Start mean grad. ratio tolernc. ....  1.125000
   Auto Start start iteration           ....    20
   Auto Start num. interpolation iter.  ....    10
   Max. Number of Micro iterations      ....    16
   Max. Number of Macro iterations      .... Maxiter - #DIIS iter
   Number of Davidson start vectors     ....     2
   Converg. threshold I  (grad. norm)   ....   1.000e-05
   Converg. threshold II (energy diff.) ....   1.000e-08
   Grad. Scal. Fac. for Micro threshold ....   0.100
   Minimum threshold for Micro iter.    ....   0.010
   NR start threshold (gradient norm)   ....   0.001
   Initial trust radius                 ....   0.400
   Minimum AH scaling param. (alpha)    ....   1.000
   Maximum AH scaling param. (alpha)    .... 1000.000
   Orbital update algorithm             .... Taylor
   White noise on init. David. guess    .... on
   Maximum white noise                  ....   0.010
   Quad. conv. algorithm                .... NR
   COSX micro iterations for RIJONX calc.... off
 SOSCF                  CNVSOSCF        .... off
 Level Shifting         CNVShift        .... on
   Level shift para.    LevelShift      ....    0.2500
   Turn off err/grad.   ShiftErr        ....    0.0010
 Zerner damping         CNVZerner       .... off
 Static damping         CNVDamp         .... on
   Fraction old density DampFac         ....    0.7000
   Max. Damping (<1)    DampMax         ....    0.9800
   Min. Damping (>=0)   DampMin         ....    0.0000
   Turn off err/grad.   DampErr         ....    0.1000
 Fernandez-Rico         CNVRico         .... off

SCF Procedure:
 Maximum # iterations   MaxIter         ....   125
 SCF integral mode      SCFMode         .... Direct
   Integral package                     .... SHARK and LIBINT hybrid scheme
 Reset frequency        DirectResetFreq ....    20
 Integral Threshold     Thresh          ....  2.500e-11 Eh
 Primitive CutOff       TCut            ....  2.500e-12 Eh

Convergence Tolerance:
 Convergence Check Mode ConvCheckMode   .... Total+1el-Energy
 Convergence forced     ConvForced      .... 0
 Energy Change          TolE            ....  1.000e-08 Eh
 1-El. energy change                    ....  1.000e-05 Eh
 DIIS Error             TolErr          ....  5.000e-07


Diagonalization of the overlap matrix:
Smallest eigenvalue                        ... 7.244e-03
Time for diagonalization                   ...    0.001 sec
Threshold for overlap eigenvalues          ... 1.000e-08
Number of eigenvalues below threshold      ... 0
Time for construction of square roots      ...    0.159 sec
Total time needed                          ...    0.161 sec

--------------------------------
INITIAL GUESS: MINIMAL BASIS EHT
--------------------------------
The minimal basis has 22 functions
EHT matrix was diagonalized
Basis set overlap was calculated now projecting the orbitals
Using GuessMode=FMatrix for the initial guess
C*T matrix was formed
Effective Fockian was calculated
Effective Fockian was diagonalized
Initial density was built
                      ------------------
                      INITIAL GUESS DONE
                      ------------------
-------------------
DFT GRID GENERATION
-------------------

General Integration Accuracy     IntAcc      ... 4.959
Radial Grid Type                 RadialGrid  ... OptM3 with GC (2021)
Angular Grid (max. ang.)         AngularGrid ... 6 (Lebedev-590)
Angular grid pruning method      GridPruning ... 4 (adaptive)
Weight generation scheme         WeightScheme... Becke
Basis function cutoff            BFCut       ... 1.0000e-11
Integration weight cutoff        WCut        ... 1.0000e-14
Angular grids for H and He will be reduced by one unit
Partially contracted basis set               ... off
Rotationally invariant grid construction     ... off

Total number of grid points                  ...    75905
Total number of batches                      ...     1189
Average number of points per batch           ...       63
Average number of grid points per atom       ...    12651
Time for grid setup =    1.996 sec

--------------------
COSX GRID GENERATION
--------------------

GRIDX 1
-------
General Integration Accuracy     IntAcc      ... 4.020
Radial Grid Type                 RadialGrid  ... OptM3 with GC (2021)
Angular Grid (max. ang.)         AngularGrid ... 2 (Lebedev-110)
Angular grid pruning method      GridPruning ... 4 (adaptive)
Weight generation scheme         WeightScheme... Becke
Basis function cutoff            BFCut       ... 1.0000e-11
Integration weight cutoff        WCut        ... 1.0000e-14
Angular grids for H and He will be reduced by one unit
Partially contracted basis set               ... on
Rotationally invariant grid construction     ... off

Total number of grid points                  ...     9023
Total number of batches                      ...      143
Average number of points per batch           ...       63
Average number of grid points per atom       ...     1504
UseSFitting                                  ... on

GRIDX 2
-------
General Integration Accuracy     IntAcc      ... 4.338
Radial Grid Type                 RadialGrid  ... OptM3 with GC (2021)
Angular Grid (max. ang.)         AngularGrid ... 3 (Lebedev-194)
Angular grid pruning method      GridPruning ... 4 (adaptive)
Weight generation scheme         WeightScheme... Becke
Basis function cutoff            BFCut       ... 1.0000e-11
Integration weight cutoff        WCut        ... 1.0000e-14
Angular grids for H and He will be reduced by one unit
Partially contracted basis set               ... on
Rotationally invariant grid construction     ... off

Total number of grid points                  ...    20038
Total number of batches                      ...      316
Average number of points per batch           ...       63
Average number of grid points per atom       ...     3340
UseSFitting                                  ... on

GRIDX 3
-------
General Integration Accuracy     IntAcc      ... 4.871
Radial Grid Type                 RadialGrid  ... OptM3 with GC (2021)
Angular Grid (max. ang.)         AngularGrid ... 4 (Lebedev-302)
Angular grid pruning method      GridPruning ... 4 (adaptive)
Weight generation scheme         WeightScheme... Becke
Basis function cutoff            BFCut       ... 1.0000e-11
Integration weight cutoff        WCut        ... 1.0000e-14
Angular grids for H and He will be reduced by one unit
Partially contracted basis set               ... on
Rotationally invariant grid construction     ... off

Total number of grid points                  ...    37291
Total number of batches                      ...      585
Average number of points per batch           ...       63
Average number of grid points per atom       ...     6215
UseSFitting                                  ... on

Time for X-Grid setup             =    3.940 sec

--------------
SCF ITERATIONS
--------------
ITER       Energy         Delta-E        Max-DP      RMS-DP      [F,P]     Damp
               ***  Starting incremental Fock matrix formation  ***
  0   -242.8478827883   0.000000000000 0.09314040  0.00564723  0.2291414 0.7000
  1   -243.2363312614  -0.388448473031 0.05295168  0.00315619  0.1407476 0.7000
                               ***Turning on DIIS***
  2   -243.4126789089  -0.176347647502 0.08958626  0.00573683  0.0993020 0.0000
  3   -243.7983767959  -0.385697886990 0.04877008  0.00243191  0.0519136 0.0000
  4   -243.8207701234  -0.022393327575 0.01823150  0.00075637  0.0292747 0.0000
  5   -243.8300881747  -0.009318051242 0.00770562  0.00029958  0.0073651 0.0000
  6   -243.8308317999  -0.000743625188 0.00278030  0.00013458  0.0035291 0.0000
  7   -243.8309778070  -0.000146007143 0.00216316  0.00008030  0.0020872 0.0000
  8   -243.8310187169  -0.000040909898 0.00135329  0.00004550  0.0010414 0.0000
  9   -243.8310305680  -0.000011851123 0.00109453  0.00003890  0.0004902 0.0000
               *** Restarting incremental Fock matrix formation ***
                                   *** Resetting DIIS ***
 10   -243.8310397675  -0.000009199460 0.00011026  0.00000722  0.0000734 0.0000
 11   -243.8310399236  -0.000000156091 0.00008992  0.00000345  0.0000840 0.0000
 12   -243.8310399897  -0.000000066152 0.00005645  0.00000238  0.0000473 0.0000
 13   -243.8310400178  -0.000000028011 0.00003755  0.00000161  0.0000196 0.0000
 14   -243.8310400251  -0.000000007341 0.00001551  0.00000039  0.0000076 0.0000
 15   -243.8310400263  -0.000000001163 0.00000623  0.00000018  0.0000027 0.0000
 16   -243.8310400260   0.000000000307 0.00000311  0.00000009  0.0000013 0.0000
                 **** Energy Check signals convergence ****

               *****************************************************
               *                     SUCCESS                       *
               *           SCF CONVERGED AFTER  17 CYCLES          *
               *****************************************************

Old exchange energy                            =    -12.098265138 Eh
New exchange energy                            =    -12.098268011 Eh
Exchange energy change after final integration =     -0.000002873 Eh
Total energy after final integration           =   -243.831042899 Eh
Final COS-X integration done in                =     0.718 sec

----------------
TOTAL SCF ENERGY
----------------

Total Energy       :         -243.83104290 Eh           -6634.97999 eV

Components:
Nuclear Repulsion  :          117.24985743 Eh            3190.53082 eV
Electronic Energy  :         -361.08090033 Eh           -9825.51082 eV
One Electron Energy:         -565.18401491 Eh          -15379.43892 eV
Two Electron Energy:          204.10311458 Eh            5553.92810 eV
Max COSX asymmetry :            0.00000032 Eh               0.00001 eV

Virial components:
Potential Energy   :         -486.12479760 Eh          -13228.12825 eV
Kinetic Energy     :          242.29375470 Eh            6593.14825 eV
Virial Ratio       :            2.00634473


DFT components:
N(Alpha)           :       15.999999573931 electrons
N(Beta)            :       14.999999805328 electrons
N(Total)           :       30.999999379259 electrons
E(X)               :      -16.159240238775 Eh       
E(C)               :       -1.383883204956 Eh       
E(XC)              :      -17.543123443731 Eh       
DFET-embed. en.    :        0.000000000000 Eh       

---------------
SCF CONVERGENCE
---------------

  Last Energy change         ...   -3.7434e-10  Tolerance :   1.0000e-08
  Last MAX-Density change    ...    0.0000e+00  Tolerance :   1.0000e-07
  Last RMS-Density change    ...    0.0000e+00  Tolerance :   5.0000e-09
  Last DIIS Error            ...    3.7532e-07  Tolerance :   5.0000e-07

             **** THE GBW FILE WAS UPDATED (pbeh-3c.gbw) ****
             **** DENSITY pbeh-3c.scfp WAS UPDATED ****
             **** ENERGY FILE WAS UPDATED (pbeh-3c.en.tmp) ****
----------------------
UHF SPIN CONTAMINATION
----------------------

Warning: in a DFT calculation there is little theoretical justification to 
         calculate <S**2> as in Hartree-Fock theory. We will do it anyways
         but you should keep in mind that the values have only limited relevance

Expectation value of <S**2>     :     0.759706
Ideal value S*(S+1) for S=0.5   :     0.750000
Deviation                       :     0.009706

             **** THE GBW FILE WAS UPDATED (pbeh-3c.gbw) ****
             **** DENSITY pbeh-3c.scfp WAS UPDATED ****
----------------
ORBITAL ENERGIES
----------------
                 SPIN UP ORBITALS
  NO   OCC          E(Eh)            E(eV) 
   0   1.0000     -19.534892      -531.5714 
   1   1.0000     -19.534769      -531.5681 
   2   1.0000     -14.893521      -405.2733 
   3   1.0000     -10.550525      -287.0944 
   4   1.0000      -1.351750       -36.7830 
   5   1.0000      -1.168855       -31.8062 
   6   1.0000      -0.941556       -25.6210 
   7   1.0000      -0.710019       -19.3206 
   8   1.0000      -0.622206       -16.9311 
   9   1.0000      -0.615320       -16.7437 
  10   1.0000      -0.608041       -16.5456 
  11   1.0000      -0.543718       -14.7953 
  12   1.0000      -0.383244       -10.4286 
  13   1.0000      -0.381041       -10.3687 
  14   1.0000      -0.362964        -9.8767 
  15   1.0000      -0.353893        -9.6299 
  16   0.0000      -0.025471        -0.6931 
  17   0.0000       0.137198         3.7334 
  18   0.0000       0.166993         4.5441 
  19   0.0000       0.187547         5.1034 
  20   0.0000       0.294885         8.0242 
  21   0.0000       0.415499        11.3063 
  22   0.0000       0.460553        12.5323 
  23   0.0000       0.497877        13.5479 
  24   0.0000       0.556004        15.1296 
  25   0.0000       0.615307        16.7434 
  26   0.0000       0.783211        21.3123 
  27   0.0000       0.786457        21.4006 
  28   0.0000       0.806093        21.9349 
  29   0.0000       0.906045        24.6547 
  30   0.0000       0.936648        25.4875 
  31   0.0000       0.975071        26.5330 
  32   0.0000       1.018483        27.7143 
  33   0.0000       1.074150        29.2291 
  34   0.0000       1.079782        29.3824 
  35   0.0000       1.111748        30.2522 
  36   0.0000       1.243328        33.8327 
  37   0.0000       1.264386        34.4057 
  38   0.0000       1.331430        36.2300 
  39   0.0000       1.406440        38.2712 
  40   0.0000       1.635509        44.5045 
  41   0.0000       1.689531        45.9745 
  42   0.0000       1.795166        48.8490 
  43   0.0000       1.824839        49.6564 
  44   0.0000       1.857237        50.5380 
  45   0.0000       1.899987        51.7013 
  46   0.0000       1.953175        53.1486 
  47   0.0000       2.021434        55.0060 
  48   0.0000       2.076028        56.4916 
  49   0.0000       2.099486        57.1299 
  50   0.0000       2.135881        58.1203 
  51   0.0000       2.251566        61.2682 
  52   0.0000       2.251780        61.2741 
  53   0.0000       2.488299        67.7101 
  54   0.0000       2.530338        68.8540 
  55   0.0000       2.720702        74.0341 
  56   0.0000       2.887183        78.5642 
  57   0.0000       2.930321        79.7381 
  58   0.0000       2.982259        81.1514 
  59   0.0000       3.124596        85.0246 
  60   0.0000      13.515612       367.7785 
  61   0.0000      19.081132       519.2240 
  62   0.0000      25.526231       694.6041 
  63   0.0000      25.745131       700.5606 

                 SPIN DOWN ORBITALS
  NO   OCC          E(Eh)            E(eV) 
   0   1.0000     -19.531488      -531.4788 
   1   1.0000     -19.531361      -531.4754 
   2   1.0000     -14.896635      -405.3580 
   3   1.0000     -10.534934      -286.6701 
   4   1.0000      -1.348938       -36.7065 
   5   1.0000      -1.161595       -31.6086 
   6   1.0000      -0.910384       -24.7728 
   7   1.0000      -0.692310       -18.8387 
   8   1.0000      -0.615070       -16.7369 
   9   1.0000      -0.602080       -16.3834 
  10   1.0000      -0.600773       -16.3479 
  11   1.0000      -0.536452       -14.5976 
  12   1.0000      -0.377176       -10.2635 
  13   1.0000      -0.359421        -9.7803 
  14   1.0000      -0.348023        -9.4702 
  15   0.0000      -0.127183        -3.4608 
  16   0.0000       0.012089         0.3290 
  17   0.0000       0.152036         4.1371 
  18   0.0000       0.182736         4.9725 
  19   0.0000       0.193697         5.2708 
  20   0.0000       0.296294         8.0626 
  21   0.0000       0.417545        11.3620 
  22   0.0000       0.513021        13.9600 
  23   0.0000       0.541786        14.7428 
  24   0.0000       0.563842        15.3429 
  25   0.0000       0.636929        17.3317 
  26   0.0000       0.784860        21.3571 
  27   0.0000       0.793018        21.5791 
  28   0.0000       0.808716        22.0063 
  29   0.0000       0.911772        24.8106 
  30   0.0000       0.939986        25.5783 
  31   0.0000       0.989729        26.9319 
  32   0.0000       1.032123        28.0855 
  33   0.0000       1.086372        29.5617 
  34   0.0000       1.088295        29.6140 
  35   0.0000       1.114249        30.3202 
  36   0.0000       1.247391        33.9432 
  37   0.0000       1.266917        34.4746 
  38   0.0000       1.353625        36.8340 
  39   0.0000       1.414114        38.4800 
  40   0.0000       1.693732        46.0888 
  41   0.0000       1.709500        46.5178 
  42   0.0000       1.800082        48.9827 
  43   0.0000       1.842710        50.1427 
  44   0.0000       1.864591        50.7381 
  45   0.0000       1.907427        51.9037 
  46   0.0000       1.957612        53.2693 
  47   0.0000       2.043370        55.6029 
  48   0.0000       2.082722        56.6738 
  49   0.0000       2.129513        57.9470 
  50   0.0000       2.163031        58.8591 
  51   0.0000       2.255914        61.3865 
  52   0.0000       2.261029        61.5257 
  53   0.0000       2.497674        67.9652 
  54   0.0000       2.540892        69.1412 
  55   0.0000       2.722999        74.0966 
  56   0.0000       2.890749        78.6613 
  57   0.0000       2.932856        79.8071 
  58   0.0000       2.984658        81.2167 
  59   0.0000       3.125708        85.0548 
  60   0.0000      13.537569       368.3760 
  61   0.0000      19.077479       519.1246 
  62   0.0000      25.530714       694.7261 
  63   0.0000      25.749632       700.6831 

                    ********************************
                    * MULLIKEN POPULATION ANALYSIS *
                    ********************************

--------------------------------------------
MULLIKEN ATOMIC CHARGES AND SPIN POPULATIONS
--------------------------------------------
   0 C :   -0.242628    1.001085
   1 N :    0.428660   -0.114824
   2 O :   -0.368401    0.112619
   3 O :   -0.368401    0.112619
   4 H :    0.275384   -0.055750
   5 H :    0.275384   -0.055750
Sum of atomic charges         :   -0.0000000
Sum of atomic spin populations:    1.0000000

-----------------------------------------------------
MULLIKEN REDUCED ORBITAL CHARGES AND SPIN POPULATIONS
-----------------------------------------------------
CHARGE
  0 C s       :     3.327985  s :     3.327985
      pz      :     0.781478  p :     2.875299
      px      :     1.186973
      py      :     0.906848
      dz2     :     0.015935  d :     0.039344
      dxz     :     0.011717
      dyz     :     0.004401
      dx2y2   :     0.007093
      dxy     :     0.000198
  1 N s       :     3.302741  s :     3.302741
      pz      :     1.057347  p :     3.098743
      px      :     0.903307
      py      :     1.138089
      dz2     :     0.043427  d :     0.169856
      dxz     :     0.048480
      dyz     :     0.011158
      dx2y2   :     0.027129
      dxy     :     0.039663
  2 O s       :     3.838303  s :     3.838303
      pz      :     1.730893  p :     4.486877
      px      :     1.318886
      py      :     1.437098
      dz2     :     0.005458  d :     0.043220
      dxz     :     0.013473
      dyz     :     0.003163
      dx2y2   :     0.011566
      dxy     :     0.009560
  3 O s       :     3.838303  s :     3.838303
      pz      :     1.730893  p :     4.486877
      px      :     1.318886
      py      :     1.437098
      dz2     :     0.005458  d :     0.043220
      dxz     :     0.013473
      dyz     :     0.003163
      dx2y2   :     0.011566
      dxy     :     0.009560
  4 H s       :     0.724616  s :     0.724616
  5 H s       :     0.724616  s :     0.724616

SPIN
  0 C s       :     0.086306  s :     0.086306
      pz      :     0.023811  p :     0.917851
      px      :     0.047449
      py      :     0.846592
      dz2     :    -0.000460  d :    -0.003072
      dxz     :    -0.000214
      dyz     :     0.000175
      dx2y2   :    -0.002551
      dxy     :    -0.000023
  1 N s       :    -0.017243  s :    -0.017243
      pz      :    -0.024248  p :    -0.106746
      px      :    -0.009170
      py      :    -0.073329
      dz2     :     0.000040  d :     0.009166
      dxz     :    -0.000010
      dyz     :     0.010364
      dx2y2   :     0.000057
      dxy     :    -0.001286
  2 O s       :     0.003179  s :     0.003179
      pz      :    -0.003004  p :     0.109980
      px      :     0.003743
      py      :     0.109241
      dz2     :    -0.000050  d :    -0.000540
      dxz     :    -0.000027
      dyz     :    -0.000241
      dx2y2   :     0.000024
      dxy     :    -0.000247
  3 O s       :     0.003179  s :     0.003179
      pz      :    -0.003004  p :     0.109980
      px      :     0.003743
      py      :     0.109241
      dz2     :    -0.000050  d :    -0.000540
      dxz     :    -0.000027
      dyz     :    -0.000241
      dx2y2   :     0.000024
      dxy     :    -0.000247
  4 H s       :    -0.055750  s :    -0.055750
  5 H s       :    -0.055750  s :    -0.055750


                     *******************************
                     * LOEWDIN POPULATION ANALYSIS *
                     *******************************

-------------------------------------------
LOEWDIN ATOMIC CHARGES AND SPIN POPULATIONS
-------------------------------------------
   0 C :   -0.105737    0.899171
   1 N :    0.236641   -0.060466
   2 O :   -0.223292    0.108047
   3 O :   -0.223292    0.108046
   4 H :    0.157840   -0.027399
   5 H :    0.157840   -0.027399

----------------------------------------------------
LOEWDIN REDUCED ORBITAL CHARGES AND SPIN POPULATIONS
----------------------------------------------------
CHARGE
  0 C s       :     3.040082  s :     3.040082
      pz      :     0.935302  p :     2.991743
      px      :     1.150344
      py      :     0.906097
      dz2     :     0.034810  d :     0.073912
      dxz     :     0.022054
      dyz     :     0.007887
      dx2y2   :     0.008965
      dxy     :     0.000195
  1 N s       :     3.002274  s :     3.002274
      pz      :     1.170556  p :     3.380148
      px      :     1.126254
      py      :     1.083338
      dz2     :     0.098810  d :     0.380936
      dxz     :     0.111946
      dyz     :     0.022278
      dx2y2   :     0.069823
      dxy     :     0.078079
  2 O s       :     3.586072  s :     3.586072
      pz      :     1.726553  p :     4.556938
      px      :     1.398802
      py      :     1.431583
      dz2     :     0.009201  d :     0.080282
      dxz     :     0.028794
      dyz     :     0.004417
      dx2y2   :     0.022807
      dxy     :     0.015062
  3 O s       :     3.586072  s :     3.586072
      pz      :     1.726553  p :     4.556938
      px      :     1.398802
      py      :     1.431584
      dz2     :     0.009201  d :     0.080282
      dxz     :     0.028794
      dyz     :     0.004417
      dx2y2   :     0.022807
      dxy     :     0.015062
  4 H s       :     0.842160  s :     0.842160
  5 H s       :     0.842160  s :     0.842160

SPIN
  0 C s       :     0.039725  s :     0.039725
      pz      :     0.019086  p :     0.864147
      px      :     0.021005
      py      :     0.824055
      dz2     :    -0.001020  d :    -0.004701
      dxz     :    -0.000758
      dyz     :    -0.000419
      dx2y2   :    -0.002484
      dxy     :    -0.000021
  1 N s       :    -0.007503  s :    -0.007503
      pz      :    -0.013934  p :    -0.073746
      px      :    -0.003938
      py      :    -0.055874
      dz2     :     0.001385  d :     0.020782
      dxz     :     0.000427
      dyz     :     0.020789
      dx2y2   :    -0.000254
      dxy     :    -0.001564
  2 O s       :     0.001463  s :     0.001463
      pz      :    -0.002125  p :     0.108280
      px      :     0.002555
      py      :     0.107850
      dz2     :    -0.000119  d :    -0.001697
      dxz     :    -0.000226
      dyz     :    -0.000294
      dx2y2   :    -0.000019
      dxy     :    -0.001040
  3 O s       :     0.001463  s :     0.001463
      pz      :    -0.002125  p :     0.108280
      px      :     0.002555
      py      :     0.107850
      dz2     :    -0.000119  d :    -0.001697
      dxz     :    -0.000226
      dyz     :    -0.000294
      dx2y2   :    -0.000019
      dxy     :    -0.001040
  4 H s       :    -0.027399  s :    -0.027399
  5 H s       :    -0.027399  s :    -0.027399


                      *****************************
                      * MAYER POPULATION ANALYSIS *
                      *****************************

  NA   - Mulliken gross atomic population
  ZA   - Total nuclear charge
  QA   - Mulliken gross atomic charge
  VA   - Mayer's total valence
  BVA  - Mayer's bonded valence
  FA   - Mayer's free valence

  ATOM       NA         ZA         QA         VA         BVA        FA
  0 C      6.2426     6.0000    -0.2426     3.6674     2.9374     0.7300
  1 N      6.5713     7.0000     0.4287     4.1658     4.1596     0.0062
  2 O      8.3684     8.0000    -0.3684     2.0046     1.9923     0.0123
  3 O      8.3684     8.0000    -0.3684     2.0046     1.9923     0.0123
  4 H      0.7246     1.0000     0.2754     0.8978     0.8948     0.0030
  5 H      0.7246     1.0000     0.2754     0.8978     0.8948     0.0030

  Mayer bond orders larger than 0.100000
B(  0-C ,  1-N ) :   0.9822 B(  0-C ,  4-H ) :   0.8847 B(  0-C ,  5-H ) :   0.8847 
B(  1-N ,  2-O ) :   1.5930 B(  1-N ,  3-O ) :   1.5930 B(  2-O ,  3-O ) :   0.2911 


-------
TIMINGS
-------

Total SCF time: 0 days 0 hours 2 min 34 sec 

Total time                  ....     154.687 sec
Sum of individual times     ....     142.094 sec  ( 91.9%)

Fock matrix formation       ....     120.757 sec  ( 78.1%)
  Split-RI-J                ....      12.262 sec  ( 10.2% of F)
  Chain of spheres X        ....      12.484 sec  ( 10.3% of F)
  XC integration            ....      39.035 sec  ( 32.3% of F)
    Basis function eval.    ....       1.193 sec  (  3.1% of XC)
    Density eval.           ....       1.863 sec  (  4.8% of XC)
    XC-Functional eval.     ....       1.481 sec  (  3.8% of XC)
    XC-Potential eval.      ....       0.850 sec  (  2.2% of XC)
Diagonalization             ....       1.549 sec  (  1.0%)
Density matrix formation    ....       0.086 sec  (  0.1%)
Population analysis         ....       2.483 sec  (  1.6%)
Initial guess               ....       0.003 sec  (  0.0%)
Orbital Transformation      ....       0.000 sec  (  0.0%)
Orbital Orthonormalization  ....       0.000 sec  (  0.0%)
DIIS solution               ....      11.280 sec  (  7.3%)
Grid generation             ....       5.936 sec  (  3.8%)

Maximum memory used throughout the entire SCF-calculation: 46.3 MB


-------------------------------------------------------------------------------
                          DFT DISPERSION CORRECTION                            
                                                                               
                              DFTD3 V3.1  Rev 1                                
                          USING Becke-Johnson damping                          
-------------------------------------------------------------------------------
The PBEh-3c composite method is recognized
Using three-body term ABC
Active option DFTDOPT                   ...         4   

molecular C6(AA) [au] = 382.733538 


            DFT-D V3
 parameters
 s6 scaling factor         :     1.0000 
 a1 scaling factor         :     0.4860 
 s8 scaling factor         :     0.0000 
 a2 scaling factor         :     4.5000 
 Damping factor alpha9(ATM):    16.0000 
 ad hoc parameters k1-k3   :    16.0000     1.3333    -4.0000 

 Edisp/kcal,au: -1.018300964701  -0.001622765708 
 E6   /kcal   :  -1.018699874 
 E8   /kcal   :  -0.000000000 
 E6(ABC)      :   0.000398909 
 % E8         :   0.000000000 
 % E6(ABC)    :  -0.039173963 

-------------------------   ----------------
Dispersion correction           -0.001622766
-------------------------   ----------------

------------------   -----------------
gCP correction             0.012344082
------------------   -----------------

-------------------------   --------------------
FINAL SINGLE POINT ENERGY      -243.820321582703
-------------------------   --------------------


                            ***************************************
                            *     ORCA property calculations      *
                            ***************************************

                                    ---------------------
                                    Active property flags
                                    ---------------------
   (+) Dipole Moment


------------------------------------------------------------------------------
                       ORCA ELECTRIC PROPERTIES CALCULATION
------------------------------------------------------------------------------

Dipole Moment Calculation                       ... on
Quadrupole Moment Calculation                   ... off
Polarizability Calculation                      ... off
GBWName                                         ... pbeh-3c.gbw
Electron density                                ... pbeh-3c.scfp
The origin for moment calculation is the CENTER OF MASS  = ( 0.000000,  0.000000 -1.201426)

-------------
DIPOLE MOMENT
-------------
                                X             Y             Z
Electronic contribution:     -0.00000      -0.00000      -1.93895
Nuclear contribution   :      0.00000       0.00000       3.46471
                        -----------------------------------------
Total Dipole Moment    :     -0.00000      -0.00000       1.52576
                        -----------------------------------------
Magnitude (a.u.)       :      1.52576
Magnitude (Debye)      :      3.87816



--------------------
Rotational spectrum 
--------------------
 
Rotational constants in cm-1:     0.417253     0.406361     0.205868 
Rotational constants in MHz : 12508.944373 12182.399833  6171.756409 

 Dipole components along the rotational axes: 
x,y,z [a.u.] :     1.525755    -0.000001    -0.000000 
x,y,z [Debye]:     3.878161    -0.000002    -0.000000 

 

Timings for individual modules:

Sum of individual times         ...      159.791 sec (=   2.663 min)
GTO integral calculation        ...        3.699 sec (=   0.062 min)   2.3 %
SCF iterations                  ...      156.092 sec (=   2.602 min)  97.7 %
                             ****ORCA TERMINATED NORMALLY****
TOTAL RUN TIME: 0 days 0 hours 2 minutes 58 seconds 57 msec
