
                                 *****************
                                 * O   R   C   A *
                                 *****************

                                            #,                                       
                                            ###                                      
                                            ####                                     
                                            #####                                    
                                            ######                                   
                                           ########,                                 
                                     ,,################,,,,,                         
                               ,,#################################,,                 
                          ,,##########################################,,             
                       ,#########################################, ''#####,          
                    ,#############################################,,   '####,        
                  ,##################################################,,,,####,       
                ,###########''''           ''''###############################       
              ,#####''   ,,,,##########,,,,          '''####'''          '####       
            ,##' ,,,,###########################,,,                        '##       
           ' ,,###''''                  '''############,,,                           
         ,,##''                                '''############,,,,        ,,,,,,###''
      ,#''                                            '''#######################'''  
     '                                                          ''''####''''         
             ,#######,   #######,   ,#######,      ##                                
            ,#'     '#,  ##    ##  ,#'     '#,    #''#        ######   ,####,        
            ##       ##  ##   ,#'  ##            #'  '#       #        #'  '#        
            ##       ##  #######   ##           ,######,      #####,   #    #        
            '#,     ,#'  ##    ##  '#,     ,#' ,#      #,         ##   #,  ,#        
             '#######'   ##     ##  '#######'  #'      '#     #####' # '####'        



                  #######################################################
                  #                        -***-                        #
                  #          Department of theory and spectroscopy      #
                  #    Directorship and core code : Frank Neese         #
                  #        Max Planck Institute fuer Kohlenforschung    #
                  #                Kaiser Wilhelm Platz 1               #
                  #                 D-45470 Muelheim/Ruhr               #
                  #                      Germany                        #
                  #                                                     #
                  #                  All rights reserved                #
                  #                        -***-                        #
                  #######################################################


                         Program Version 5.0.3 -  RELEASE  -


 With contributions from (in alphabetic order):
   Daniel Aravena         : Magnetic Suceptibility
   Michael Atanasov       : Ab Initio Ligand Field Theory (pilot matlab implementation)
   Alexander A. Auer      : GIAO ZORA, VPT2 properties, NMR spectrum
   Ute Becker             : Parallelization
   Giovanni Bistoni       : ED, misc. LED, open-shell LED, HFLD
   Martin Brehm           : Molecular dynamics
   Dmytro Bykov           : SCF Hessian
   Vijay G. Chilkuri      : MRCI spin determinant printing, contributions to CSF-ICE
   Dipayan Datta          : RHF DLPNO-CCSD density
   Achintya Kumar Dutta   : EOM-CC, STEOM-CC
   Dmitry Ganyushin       : Spin-Orbit,Spin-Spin,Magnetic field MRCI
   Miquel Garcia          : C-PCM and meta-GGA Hessian, CC/C-PCM, Gaussian charge scheme
   Yang Guo               : DLPNO-NEVPT2, F12-NEVPT2, CIM, IAO-localization
   Andreas Hansen         : Spin unrestricted coupled pair/coupled cluster methods
   Benjamin Helmich-Paris : MC-RPA, TRAH-SCF, COSX integrals
   Lee Huntington         : MR-EOM, pCC
   Robert Izsak           : Overlap fitted RIJCOSX, COSX-SCS-MP3, EOM
   Marcus Kettner         : VPT2
   Christian Kollmar      : KDIIS, OOCD, Brueckner-CCSD(T), CCSD density, CASPT2, CASPT2-K
   Simone Kossmann        : Meta GGA functionals, TD-DFT gradient, OOMP2, MP2 Hessian
   Martin Krupicka        : Initial AUTO-CI
   Lucas Lang             : DCDCAS
   Marvin Lechner         : AUTO-CI (C++ implementation), FIC-MRCC
   Dagmar Lenk            : GEPOL surface, SMD
   Dimitrios Liakos       : Extrapolation schemes; Compound Job, initial MDCI parallelization
   Dimitrios Manganas     : Further ROCIS development; embedding schemes
   Dimitrios Pantazis     : SARC Basis sets
   Anastasios Papadopoulos: AUTO-CI, single reference methods and gradients
   Taras Petrenko         : DFT Hessian,TD-DFT gradient, ASA, ECA, R-Raman, ABS, FL, XAS/XES, NRVS
   Peter Pinski           : DLPNO-MP2, DLPNO-MP2 Gradient
   Christoph Reimann      : Effective Core Potentials
   Marius Retegan         : Local ZFS, SOC
   Christoph Riplinger    : Optimizer, TS searches, QM/MM, DLPNO-CCSD(T), (RO)-DLPNO pert. Triples
   Tobias Risthaus        : Range-separated hybrids, TD-DFT gradient, RPA, STAB
   Michael Roemelt        : Original ROCIS implementation
   Masaaki Saitow         : Open-shell DLPNO-CCSD energy and density
   Barbara Sandhoefer     : DKH picture change effects
   Avijit Sen             : IP-ROCIS
   Kantharuban Sivalingam : CASSCF convergence, NEVPT2, FIC-MRCI
   Bernardo de Souza      : ESD, SOC TD-DFT
   Georgi Stoychev        : AutoAux, RI-MP2 NMR, DLPNO-MP2 response
   Willem Van den Heuvel  : Paramagnetic NMR
   Boris Wezisla          : Elementary symmetry handling
   Frank Wennmohs         : Technical directorship


 We gratefully acknowledge several colleagues who have allowed us to
 interface, adapt or use parts of their codes:
   Stefan Grimme, W. Hujo, H. Kruse, P. Pracht,  : VdW corrections, initial TS optimization,
                  C. Bannwarth, S. Ehlert          DFT functionals, gCP, sTDA/sTD-DF
   Ed Valeev, F. Pavosevic, A. Kumar             : LibInt (2-el integral package), F12 methods
   Garnet Chan, S. Sharma, J. Yang, R. Olivares  : DMRG
   Ulf Ekstrom                                   : XCFun DFT Library
   Mihaly Kallay                                 : mrcc  (arbitrary order and MRCC methods)
   Jiri Pittner, Ondrej Demel                    : Mk-CCSD
   Frank Weinhold                                : gennbo (NPA and NBO analysis)
   Christopher J. Cramer and Donald G. Truhlar   : smd solvation model
   Lars Goerigk                                  : TD-DFT with DH, B97 family of functionals
   V. Asgeirsson, H. Jonsson                     : NEB implementation
   FAccTs GmbH                                   : IRC, NEB, NEB-TS, DLPNO-Multilevel, CI-OPT
                                                   MM, QMMM, 2- and 3-layer-ONIOM, Crystal-QMMM,
                                                   LR-CPCM, SF, NACMEs, symmetry and pop. for TD-DFT,
                                                   nearIR, NL-DFT gradient (VV10), updates on ESD,
                                                   ML-optimized integration grids
   S Lehtola, MJT Oliveira, MAL Marques          : LibXC Library
   Liviu Ungur et al                             : ANISO software


 Your calculation uses the libint2 library for the computation of 2-el integrals
 For citations please refer to: http://libint.valeyev.net

 Your ORCA version has been built with support for libXC version: 5.1.0
 For citations please refer to: https://tddft.org/programs/libxc/

 This ORCA versions uses:
   CBLAS   interface :  Fast vector & matrix operations
   LAPACKE interface :  Fast linear algebra routines
   SCALAPACK package :  Parallel linear algebra routines
   Shared memory     :  Shared parallel matrices
   BLAS/LAPACK       :  OpenBLAS 0.3.15  USE64BITINT DYNAMIC_ARCH NO_AFFINITY Haswell SINGLE_THREADED
        Core in use  :  Haswell
   Copyright (c) 2011-2014, The OpenBLAS Project




***************************************
The coordinates will be read from file: 3a.xyz
***************************************


Your calculation utilizes the geometrical counterpoise correction gCP
Please cite in your paper:
H.Kruse, S. Grimme J.Chem.Phys., 136, (2012), 154101 
   

Your calculation utilizes the atom-pairwise dispersion correction
with the Becke-Johnson damping scheme (D3BJ)
Cite in your paper:
S.Grimme, S.Ehrlich, L.Goerigk, J Comput Chem, (2011), 32, 1456–1465 
S.Grimme, J.Antony, S.Ehrlich and H.Krieg, J.Chem.Phys., 132, (2010), 154104 
   

Your calculation employs the composite approach PBEh-3c.
Please cite in your paper:
S. Grimme, J. G. Brandenburg, C. Bannwarth, A. Hansen J.Chem.Phys., 143, (2015), 054107 
   

================================================================================

----- Orbital basis set information -----
Your calculation utilizes the basis: def2-mSVP

----- AuxJ basis set information -----
Your calculation utilizes the auxiliary basis: def2/J
   F. Weigend, Phys. Chem. Chem. Phys. 8, 1057 (2006).

================================================================================
                                        WARNINGS
                       Please study these warnings very carefully!
================================================================================


INFO   : the flag for use of the SHARK integral package has been found!

================================================================================
                                       INPUT FILE
================================================================================
NAME = pbeh-3c.inp
|  1> ! PBEh-3c def2/J TightSCF DefGrid3
|  2> 
|  3> %maxcore 60000
|  4> 
|  5> %pal
|  6> nprocs 4
|  7> end
|  8> 
|  9> *xyzfile 0 1 3a.xyz
| 10> 
| 11>                          ****END OF INPUT****
================================================================================

                       ****************************
                       * Single Point Calculation *
                       ****************************

---------------------------------
CARTESIAN COORDINATES (ANGSTROEM)
---------------------------------
  C     -2.586669   -0.672814    0.000000
  C     -1.097974   -0.740171    0.000000
  C     -0.290660    0.355575    0.000000
  C      1.150869    0.252257    0.000000
  C      1.930424    1.537346    0.000000
  O     -0.623634   -1.981331    0.000000
  N      1.704370   -0.918702    0.000000
  H     -2.933261    0.355638    0.000000
  H     -2.976389   -1.184981    0.877506
  H     -2.976389   -1.184981   -0.877506
  H      0.376827   -1.896009    0.000000
  H     -0.746235    1.332716    0.000000
  H      2.717322   -0.862334    0.000000
  H      1.677215    2.127391    0.880180
  H      1.677215    2.127391   -0.880180
  H      3.001058    1.349433    0.000000

----------------------------
CARTESIAN COORDINATES (A.U.)
----------------------------
  NO LB      ZA    FRAG     MASS         X           Y           Z
   0 C     6.0000    0    12.011   -4.888095   -1.271433    0.000000
   1 C     6.0000    0    12.011   -2.074870   -1.398721    0.000000
   2 C     6.0000    0    12.011   -0.549267    0.671938    0.000000
   3 C     6.0000    0    12.011    2.174826    0.476696    0.000000
   4 C     6.0000    0    12.011    3.647973    2.905163    0.000000
   5 O     8.0000    0    15.999   -1.178497   -3.744174    0.000000
   6 N     7.0000    0    14.007    3.220793   -1.736096    0.000000
   7 H     1.0000    0     1.008   -5.543059    0.672058    0.000000
   8 H     1.0000    0     1.008   -5.624560   -2.239290    1.658246
   9 H     1.0000    0     1.008   -5.624560   -2.239290   -1.658246
  10 H     1.0000    0     1.008    0.712099   -3.582938    0.000000
  11 H     1.0000    0     1.008   -1.410180    2.518468    0.000000
  12 H     1.0000    0     1.008    5.134994   -1.629575    0.000000
  13 H     1.0000    0     1.008    3.169478    4.020186    1.663299
  14 H     1.0000    0     1.008    3.169478    4.020186   -1.663299
  15 H     1.0000    0     1.008    5.671178    2.550059    0.000000

--------------------------------
INTERNAL COORDINATES (ANGSTROEM)
--------------------------------
 C      0   0   0     0.000000000000     0.00000000     0.00000000
 C      1   0   0     1.490217754587     0.00000000     0.00000000
 C      2   1   0     1.361034420993   123.79108382     0.00000000
 C      3   2   1     1.445226060577   122.28221802   180.00000000
 C      4   3   2     1.503050626376   117.14215965   180.00000000
 O      2   1   3     1.328712470564   113.50623431   180.00000000
 N      4   3   2     1.295187263816   119.39917749     0.00000000
 H      1   2   3     1.085282462718   111.21466640     0.00000000
 H      1   2   3     1.088215991984   109.66308600   238.90411683
 H      1   2   3     1.088215991984   109.66308600   121.09588317
 H      6   2   1     1.004092280136   106.04102978   180.00000000
 H      3   2   1     1.078125430045   118.62178571     0.00000000
 H      7   4   3     1.014518495536   112.11455382   180.00000000
 H      5   4   3     1.089488049236   110.02951054    59.30463230
 H      5   4   3     1.089488049236   110.02951054   300.69536770
 H      5   4   3     1.086999669264   111.28675341   180.00000000

---------------------------
INTERNAL COORDINATES (A.U.)
---------------------------
 C      0   0   0     0.000000000000     0.00000000     0.00000000
 C      1   0   0     2.816103436076     0.00000000     0.00000000
 C      2   1   0     2.571982314517   123.79108382     0.00000000
 C      3   2   1     2.731081456096   122.28221802   180.00000000
 C      4   3   2     2.840354049269   117.14215965   180.00000000
 O      2   1   3     2.510902680092   113.50623431   180.00000000
 N      4   3   2     2.447549220755   119.39917749     0.00000000
 H      1   2   3     2.050886632484   111.21466640     0.00000000
 H      1   2   3     2.056430199404   109.66308600   238.90411683
 H      1   2   3     2.056430199404   109.66308600   121.09588317
 H      6   2   1     1.897459422642   106.04102978   180.00000000
 H      3   2   1     2.037361800801   118.62178571     0.00000000
 H      7   4   3     1.917162114361   112.11455382   180.00000000
 H      5   4   3     2.058834039236   110.02951054    59.30463230
 H      5   4   3     2.058834039236   110.02951054   300.69536770
 H      5   4   3     2.054131682573   111.28675341   180.00000000

---------------------
BASIS SET INFORMATION
---------------------
There are 4 groups of distinct atoms

 Group   1 Type C   : 8s4p1d contracted to 4s2p1d pattern {5111/31/1}
 Group   2 Type O   : 8s4p1d contracted to 4s2p1d pattern {5111/31/1}
 Group   3 Type N   : 8s4p1d contracted to 4s2p1d pattern {5111/31/1}
 Group   4 Type H   : 4s contracted to 2s pattern {31}

Atom   0C    basis set group =>   1
Atom   1C    basis set group =>   1
Atom   2C    basis set group =>   1
Atom   3C    basis set group =>   1
Atom   4C    basis set group =>   1
Atom   5O    basis set group =>   2
Atom   6N    basis set group =>   3
Atom   7H    basis set group =>   4
Atom   8H    basis set group =>   4
Atom   9H    basis set group =>   4
Atom  10H    basis set group =>   4
Atom  11H    basis set group =>   4
Atom  12H    basis set group =>   4
Atom  13H    basis set group =>   4
Atom  14H    basis set group =>   4
Atom  15H    basis set group =>   4
---------------------------------
AUXILIARY/J BASIS SET INFORMATION
---------------------------------
There are 4 groups of distinct atoms

 Group   1 Type C   : 12s5p4d2f1g contracted to 6s4p3d1f1g pattern {711111/2111/211/2/1}
 Group   2 Type O   : 12s5p4d2f1g contracted to 6s4p3d1f1g pattern {711111/2111/211/2/1}
 Group   3 Type N   : 12s5p4d2f1g contracted to 6s4p3d1f1g pattern {711111/2111/211/2/1}
 Group   4 Type H   : 5s2p1d contracted to 3s1p1d pattern {311/2/1}

Atom   0C    basis set group =>   1
Atom   1C    basis set group =>   1
Atom   2C    basis set group =>   1
Atom   3C    basis set group =>   1
Atom   4C    basis set group =>   1
Atom   5O    basis set group =>   2
Atom   6N    basis set group =>   3
Atom   7H    basis set group =>   4
Atom   8H    basis set group =>   4
Atom   9H    basis set group =>   4
Atom  10H    basis set group =>   4
Atom  11H    basis set group =>   4
Atom  12H    basis set group =>   4
Atom  13H    basis set group =>   4
Atom  14H    basis set group =>   4
Atom  15H    basis set group =>   4


           ************************************************************
           *        Program running with 4 parallel MPI-processes     *
           *              working on a common directory               *
           ************************************************************
------------------------------------------------------------------------------
                           ORCA GTO INTEGRAL CALCULATION
                           -- RI-GTO INTEGRALS CHOSEN --
------------------------------------------------------------------------------
------------------------------------------------------------------------------
                   ___                                                        
                  /   \      - P O W E R E D   B Y -                         
                 /     \                                                     
                 |  |  |   _    _      __       _____    __    __             
                 |  |  |  | |  | |    /  \     |  _  \  |  |  /  |          
                  \  \/   | |  | |   /    \    | | | |  |  | /  /          
                 / \  \   | |__| |  /  /\  \   | |_| |  |  |/  /          
                |  |  |   |  __  | /  /__\  \  |    /   |      \           
                |  |  |   | |  | | |   __   |  |    \   |  |\   \          
                \     /   | |  | | |  |  |  |  | |\  \  |  | \   \       
                 \___/    |_|  |_| |__|  |__|  |_| \__\ |__|  \__/        
                                                                              
                      - O R C A' S   B I G   F R I E N D -                    
                                      &                                       
                       - I N T E G R A L  F E E D E R -                       
                                                                              
 v1 FN, 2020, v2 2021                                                         
------------------------------------------------------------------------------


Reading SHARK input file pbeh-3c.SHARKINP.tmp ... ok
----------------------
SHARK INTEGRAL PACKAGE
----------------------

Number of atoms                             ...     16
Number of basis functions                   ...    123
Number of shells                            ...     67
Maximum angular momentum                    ...      2
Integral batch strategy                     ... SHARK/LIBINT Hybrid
RI-J (if used) integral strategy            ... SPLIT-RIJ (Revised 2003 algorithm where possible)
Printlevel                                  ...      1
Contraction scheme used                     ... SEGMENTED contraction
Coulomb Range Separation                    ... NOT USED
Exchange Range Separation                   ... NOT USED
Finite Nucleus Model                        ... NOT USED
Auxiliary Coulomb fitting basis             ... AVAILABLE
   # of basis functions in Aux-J            ...    442
   # of shells in Aux-J                     ...    150
   Maximum angular momentum in Aux-J        ...      4
Auxiliary J/K fitting basis                 ... NOT available
Auxiliary Correlation fitting basis         ... NOT available
Auxiliary 'external' fitting basis          ... NOT available
Integral threshold                          ...     2.500000e-11
Primitive cut-off                           ...     2.500000e-12
Primitive pair pre-selection threshold      ...     2.500000e-12

Calculating pre-screening integrals         ... done (  0.1 sec) Dimension = 67
Organizing shell pair data                  ... done (  0.3 sec)
Shell pair information
Total number of shell pairs                 ...      2278
Shell pairs after pre-screening             ...      2071
Total number of primitive shell pairs       ...      8246
Primitive shell pairs kept                  ...      5410
          la=0 lb=0:    930 shell pairs
          la=1 lb=0:    620 shell pairs
          la=1 lb=1:    105 shell pairs
          la=2 lb=0:    291 shell pairs
          la=2 lb=1:     98 shell pairs
          la=2 lb=2:     27 shell pairs

Calculating one electron integrals          ... done (  0.0 sec)
Calculating RI/J V-Matrix + Cholesky decomp.... done (  0.3 sec)
Calculating Nuclear repulsion               ... done (  0.0 sec) ENN=    298.246578934327 Eh

SHARK setup successfully completed in   1.5 seconds

Maximum memory used throughout the entire GTOINT-calculation: 10.8 MB


           ************************************************************
           *        Program running with 4 parallel MPI-processes     *
           *              working on a common directory               *
           ************************************************************
-------------------------------------------------------------------------------
                                 ORCA SCF
-------------------------------------------------------------------------------

------------
SCF SETTINGS
------------
Hamiltonian:
 Density Functional     Method          .... DFT(GTOs)
 Exchange Functional    Exchange        .... PBE
   PBE kappa parameter   XKappa         ....  1.024500
   PBE mue parameter    XMuePBE         ....  0.123457
 Correlation Functional Correlation     .... PBE
   PBE beta parameter  CBetaPBE         ....  0.030000
 LDA part of GGA corr.  LDAOpt          .... PW91-LDA
 Gradients option       PostSCFGGA      .... off
 Hybrid DFT is turned on
   Fraction HF Exchange ScalHFX         ....  0.420000
   Scaling of DF-GGA-X  ScalDFX         ....  0.580000
   Scaling of DF-GGA-C  ScalDFC         ....  1.000000
   Scaling of DF-LDA-C  ScalLDAC        ....  1.000000
   Perturbative correction              ....  0.000000
   Density functional embedding theory  .... OFF
 RI-approximation to the Coulomb term is turned on
   Number of AuxJ basis functions       .... 442
   RIJ-ON(X) (HFX calculated with O(N)) .... on
   Number of AuxJ basis functions       .... 442
   RIJ-COSX (HFX calculated with COS-X)).... on


General Settings:
 Integral files         IntName         .... pbeh-3c
 Hartree-Fock type      HFTyp           .... RHF
 Total Charge           Charge          ....    0
 Multiplicity           Mult            ....    1
 Number of Electrons    NEL             ....   54
 Basis Dimension        Dim             ....  123
 Nuclear Repulsion      ENuc            ....    298.2465789343 Eh

Convergence Acceleration:
 DIIS                   CNVDIIS         .... on
   Start iteration      DIISMaxIt       ....    12
   Startup error        DIISStart       ....  0.200000
   # of expansion vecs  DIISMaxEq       ....     5
   Bias factor          DIISBfac        ....   1.050
   Max. coefficient     DIISMaxC        ....  10.000
 Trust-Rad. Augm. Hess. CNVTRAH         .... auto
   Auto Start mean grad. ratio tolernc. ....  1.125000
   Auto Start start iteration           ....    20
   Auto Start num. interpolation iter.  ....    10
   Max. Number of Micro iterations      ....    16
   Max. Number of Macro iterations      .... Maxiter - #DIIS iter
   Number of Davidson start vectors     ....     2
   Converg. threshold I  (grad. norm)   ....   1.000e-05
   Converg. threshold II (energy diff.) ....   1.000e-08
   Grad. Scal. Fac. for Micro threshold ....   0.100
   Minimum threshold for Micro iter.    ....   0.010
   NR start threshold (gradient norm)   ....   0.001
   Initial trust radius                 ....   0.400
   Minimum AH scaling param. (alpha)    ....   1.000
   Maximum AH scaling param. (alpha)    .... 1000.000
   Orbital update algorithm             .... Taylor
   White noise on init. David. guess    .... on
   Maximum white noise                  ....   0.010
   Quad. conv. algorithm                .... NR
   COSX micro iterations for RIJONX calc.... off
 SOSCF                  CNVSOSCF        .... on
   Start iteration      SOSCFMaxIt      ....   150
   Startup grad/error   SOSCFStart      ....  0.003300
 Level Shifting         CNVShift        .... on
   Level shift para.    LevelShift      ....    0.2500
   Turn off err/grad.   ShiftErr        ....    0.0010
 Zerner damping         CNVZerner       .... off
 Static damping         CNVDamp         .... on
   Fraction old density DampFac         ....    0.7000
   Max. Damping (<1)    DampMax         ....    0.9800
   Min. Damping (>=0)   DampMin         ....    0.0000
   Turn off err/grad.   DampErr         ....    0.1000
 Fernandez-Rico         CNVRico         .... off

SCF Procedure:
 Maximum # iterations   MaxIter         ....   125
 SCF integral mode      SCFMode         .... Direct
   Integral package                     .... SHARK and LIBINT hybrid scheme
 Reset frequency        DirectResetFreq ....    20
 Integral Threshold     Thresh          ....  2.500e-11 Eh
 Primitive CutOff       TCut            ....  2.500e-12 Eh

Convergence Tolerance:
 Convergence Check Mode ConvCheckMode   .... Total+1el-Energy
 Convergence forced     ConvForced      .... 0
 Energy Change          TolE            ....  1.000e-08 Eh
 1-El. energy change                    ....  1.000e-05 Eh
 Orbital Gradient       TolG            ....  1.000e-05
 Orbital Rotation angle TolX            ....  1.000e-05
 DIIS Error             TolErr          ....  5.000e-07


Diagonalization of the overlap matrix:
Smallest eigenvalue                        ... 1.750e-03
Time for diagonalization                   ...    0.003 sec
Threshold for overlap eigenvalues          ... 1.000e-08
Number of eigenvalues below threshold      ... 0
Time for construction of square roots      ...    0.191 sec
Total time needed                          ...    0.195 sec

--------------------------------
INITIAL GUESS: MINIMAL BASIS EHT
--------------------------------
The minimal basis has 44 functions
EHT matrix was diagonalized
Basis set overlap was calculated now projecting the orbitals
Using GuessMode=FMatrix for the initial guess
C*T matrix was formed
Effective Fockian was calculated
Effective Fockian was diagonalized
Initial density was built
                      ------------------
                      INITIAL GUESS DONE
                      ------------------
-------------------
DFT GRID GENERATION
-------------------

General Integration Accuracy     IntAcc      ... 4.959
Radial Grid Type                 RadialGrid  ... OptM3 with GC (2021)
Angular Grid (max. ang.)         AngularGrid ... 6 (Lebedev-590)
Angular grid pruning method      GridPruning ... 4 (adaptive)
Weight generation scheme         WeightScheme... Becke
Basis function cutoff            BFCut       ... 1.0000e-11
Integration weight cutoff        WCut        ... 1.0000e-14
Angular grids for H and He will be reduced by one unit
Partially contracted basis set               ... off
Rotationally invariant grid construction     ... off

Total number of grid points                  ...   178930
Total number of batches                      ...     2804
Average number of points per batch           ...       63
Average number of grid points per atom       ...    11183
Time for grid setup =    3.565 sec

--------------------
COSX GRID GENERATION
--------------------

GRIDX 1
-------
General Integration Accuracy     IntAcc      ... 4.020
Radial Grid Type                 RadialGrid  ... OptM3 with GC (2021)
Angular Grid (max. ang.)         AngularGrid ... 2 (Lebedev-110)
Angular grid pruning method      GridPruning ... 4 (adaptive)
Weight generation scheme         WeightScheme... Becke
Basis function cutoff            BFCut       ... 1.0000e-11
Integration weight cutoff        WCut        ... 1.0000e-14
Angular grids for H and He will be reduced by one unit
Partially contracted basis set               ... on
Rotationally invariant grid construction     ... off

Total number of grid points                  ...    19534
Total number of batches                      ...      314
Average number of points per batch           ...       62
Average number of grid points per atom       ...     1221
UseSFitting                                  ... on

GRIDX 2
-------
General Integration Accuracy     IntAcc      ... 4.338
Radial Grid Type                 RadialGrid  ... OptM3 with GC (2021)
Angular Grid (max. ang.)         AngularGrid ... 3 (Lebedev-194)
Angular grid pruning method      GridPruning ... 4 (adaptive)
Weight generation scheme         WeightScheme... Becke
Basis function cutoff            BFCut       ... 1.0000e-11
Integration weight cutoff        WCut        ... 1.0000e-14
Angular grids for H and He will be reduced by one unit
Partially contracted basis set               ... on
Rotationally invariant grid construction     ... off

Total number of grid points                  ...    42832
Total number of batches                      ...      677
Average number of points per batch           ...       63
Average number of grid points per atom       ...     2677
UseSFitting                                  ... on

GRIDX 3
-------
General Integration Accuracy     IntAcc      ... 4.871
Radial Grid Type                 RadialGrid  ... OptM3 with GC (2021)
Angular Grid (max. ang.)         AngularGrid ... 4 (Lebedev-302)
Angular grid pruning method      GridPruning ... 4 (adaptive)
Weight generation scheme         WeightScheme... Becke
Basis function cutoff            BFCut       ... 1.0000e-11
Integration weight cutoff        WCut        ... 1.0000e-14
Angular grids for H and He will be reduced by one unit
Partially contracted basis set               ... on
Rotationally invariant grid construction     ... off

Total number of grid points                  ...    83154
Total number of batches                      ...     1308
Average number of points per batch           ...       63
Average number of grid points per atom       ...     5197
UseSFitting                                  ... on

Time for X-Grid setup             =    3.938 sec

--------------
SCF ITERATIONS
--------------
ITER       Energy         Delta-E        Max-DP      RMS-DP      [F,P]     Damp
               ***  Starting incremental Fock matrix formation  ***
  0   -324.2395913211   0.000000000000 0.19422700  0.00652834  0.4543739 0.7000
  1   -324.5893122056  -0.349720884527 0.12697326  0.00392936  0.2969022 0.7000
  2   -324.7795245100  -0.190212304344 0.06657941  0.00232644  0.2098496 0.7000
                               ***Turning on DIIS***
  3   -324.9100035675  -0.130479057460 0.03811723  0.00157451  0.1479757 0.7000
  4   -325.0040250593  -0.094021491821 0.03039884  0.00118940  0.1041574 0.7000
  5   -325.0707995375  -0.066774478185 0.06879994  0.00294108  0.0729982 0.0000
  6   -325.2296994203  -0.158899882849 0.00525168  0.00016598  0.0041388 0.0000
                      *** Initiating the SOSCF procedure ***
                           *** Shutting down DIIS ***
                      *** Re-Reading the Fockian *** 
                      *** Removing any level shift *** 
ITER      Energy       Delta-E        Grad      Rot      Max-DP    RMS-DP
  7   -325.22980587  -0.0001064508  0.000801  0.000801  0.002040  0.000074
               *** Restarting incremental Fock matrix formation ***
  8   -325.22984178  -0.0000359059  0.000649  0.002464  0.001795  0.000063
  9   -325.22984871  -0.0000069319  0.000316  0.000809  0.001298  0.000047
 10   -325.22985023  -0.0000015233  0.000166  0.000302  0.000570  0.000019
 11   -325.22985089  -0.0000006558  0.000027  0.000059  0.000101  0.000003
 12   -325.22985089  -0.0000000002  0.000029  0.000034  0.000064  0.000002
 13   -325.22985091  -0.0000000177  0.000003  0.000011  0.000009  0.000000
                 **** Energy Check signals convergence ****
              ***Rediagonalizing the Fockian in SOSCF/NRSCF***

               *****************************************************
               *                     SUCCESS                       *
               *           SCF CONVERGED AFTER  14 CYCLES          *
               *****************************************************

Old exchange energy                            =    -18.453804645 Eh
New exchange energy                            =    -18.453806273 Eh
Exchange energy change after final integration =     -0.000001628 Eh
Total energy after final integration           =   -325.229852533 Eh
Final COS-X integration done in                =     3.285 sec

----------------
TOTAL SCF ENERGY
----------------

Total Energy       :         -325.22985253 Eh           -8849.95421 eV

Components:
Nuclear Repulsion  :          298.24657893 Eh            8115.70201 eV
Electronic Energy  :         -623.47643147 Eh          -16965.65622 eV
One Electron Energy:        -1031.67997887 Eh          -28073.43945 eV
Two Electron Energy:          408.20354740 Eh           11107.78323 eV
Max COSX asymmetry :            0.00000134 Eh               0.00004 eV

Virial components:
Potential Energy   :         -648.02652962 Eh          -17633.69835 eV
Kinetic Energy     :          322.79667709 Eh            8783.74414 eV
Virial Ratio       :            2.00753780


DFT components:
N(Alpha)           :       27.000000211093 electrons
N(Beta)            :       27.000000211093 electrons
N(Total)           :       54.000000422186 electrons
E(X)               :      -24.528967969102 Eh       
E(C)               :       -2.347440453108 Eh       
E(XC)              :      -26.876408422210 Eh       
DFET-embed. en.    :        0.000000000000 Eh       

---------------
SCF CONVERGENCE
---------------

  Last Energy change         ...    2.7836e-10  Tolerance :   1.0000e-08
  Last MAX-Density change    ...    1.3323e-15  Tolerance :   1.0000e-07
  Last RMS-Density change    ...    3.3997e-17  Tolerance :   5.0000e-09
  Last Orbital Gradient      ...    2.7542e-06  Tolerance :   1.0000e-05
  Last Orbital Rotation      ...    3.7444e-06  Tolerance :   1.0000e-05

             **** THE GBW FILE WAS UPDATED (pbeh-3c.gbw) ****
             **** DENSITY pbeh-3c.scfp WAS UPDATED ****
             **** ENERGY FILE WAS UPDATED (pbeh-3c.en.tmp) ****
             **** THE GBW FILE WAS UPDATED (pbeh-3c.gbw) ****
             **** DENSITY pbeh-3c.scfp WAS UPDATED ****
----------------
ORBITAL ENERGIES
----------------

  NO   OCC          E(Eh)            E(eV) 
   0   2.0000     -19.503014      -530.7040 
   1   2.0000     -14.618348      -397.7855 
   2   2.0000     -10.519052      -286.2380 
   3   2.0000     -10.501998      -285.7739 
   4   2.0000     -10.444466      -284.2084 
   5   2.0000     -10.436060      -283.9796 
   6   2.0000     -10.421459      -283.5823 
   7   2.0000      -1.162605       -31.6361 
   8   2.0000      -1.006101       -27.3774 
   9   2.0000      -0.872508       -23.7421 
  10   2.0000      -0.828375       -22.5412 
  11   2.0000      -0.790433       -21.5088 
  12   2.0000      -0.667778       -18.1712 
  13   2.0000      -0.633204       -17.2304 
  14   2.0000      -0.578527       -15.7425 
  15   2.0000      -0.522169       -14.2089 
  16   2.0000      -0.503584       -13.7032 
  17   2.0000      -0.496442       -13.5089 
  18   2.0000      -0.489201       -13.3118 
  19   2.0000      -0.475229       -12.9316 
  20   2.0000      -0.457191       -12.4408 
  21   2.0000      -0.429083       -11.6759 
  22   2.0000      -0.421281       -11.4636 
  23   2.0000      -0.420832       -11.4514 
  24   2.0000      -0.366980        -9.9860 
  25   2.0000      -0.319251        -8.6873 
  26   2.0000      -0.259589        -7.0638 
  27   0.0000       0.003866         0.1052 
  28   0.0000       0.117102         3.1865 
  29   0.0000       0.132395         3.6026 
  30   0.0000       0.166297         4.5252 
  31   0.0000       0.180450         4.9103 
  32   0.0000       0.185629         5.0512 
  33   0.0000       0.209267         5.6945 
  34   0.0000       0.222258         6.0480 
  35   0.0000       0.226068         6.1516 
  36   0.0000       0.234899         6.3919 
  37   0.0000       0.246476         6.7069 
  38   0.0000       0.266451         7.2505 
  39   0.0000       0.273337         7.4379 
  40   0.0000       0.351066         9.5530 
  41   0.0000       0.399757        10.8779 
  42   0.0000       0.427675        11.6376 
  43   0.0000       0.442881        12.0514 
  44   0.0000       0.500601        13.6221 
  45   0.0000       0.522751        14.2248 
  46   0.0000       0.543434        14.7876 
  47   0.0000       0.558617        15.2007 
  48   0.0000       0.563417        15.3314 
  49   0.0000       0.575278        15.6541 
  50   0.0000       0.599442        16.3116 
  51   0.0000       0.607200        16.5228 
  52   0.0000       0.645557        17.5665 
  53   0.0000       0.669769        18.2253 
  54   0.0000       0.680006        18.5039 
  55   0.0000       0.707008        19.2387 
  56   0.0000       0.718878        19.5617 
  57   0.0000       0.766833        20.8666 
  58   0.0000       0.823847        22.4180 
  59   0.0000       0.861383        23.4394 
  60   0.0000       0.881897        23.9977 
  61   0.0000       0.950042        25.8519 
  62   0.0000       0.993401        27.0318 
  63   0.0000       0.998343        27.1663 
  64   0.0000       1.009592        27.4724 
  65   0.0000       1.026669        27.9371 
  66   0.0000       1.032783        28.1034 
  67   0.0000       1.054074        28.6828 
  68   0.0000       1.063373        28.9358 
  69   0.0000       1.093761        29.7628 
  70   0.0000       1.099710        29.9246 
  71   0.0000       1.116700        30.3870 
  72   0.0000       1.142028        31.0762 
  73   0.0000       1.207698        32.8631 
  74   0.0000       1.239674        33.7332 
  75   0.0000       1.277985        34.7757 
  76   0.0000       1.369243        37.2590 
  77   0.0000       1.417255        38.5655 
  78   0.0000       1.427799        38.8524 
  79   0.0000       1.446422        39.3591 
  80   0.0000       1.462322        39.7918 
  81   0.0000       1.544091        42.0168 
  82   0.0000       1.557487        42.3814 
  83   0.0000       1.691811        46.0365 
  84   0.0000       1.772559        48.2338 
  85   0.0000       1.788060        48.6556 
  86   0.0000       1.802683        49.0535 
  87   0.0000       1.810305        49.2609 
  88   0.0000       1.853248        50.4294 
  89   0.0000       1.883500        51.2526 
  90   0.0000       1.938211        52.7414 
  91   0.0000       1.939975        52.7894 
  92   0.0000       1.997090        54.3436 
  93   0.0000       2.011440        54.7341 
  94   0.0000       2.062653        56.1276 
  95   0.0000       2.132614        58.0314 
  96   0.0000       2.201202        59.8977 
  97   0.0000       2.204495        59.9874 
  98   0.0000       2.266236        61.6674 
  99   0.0000       2.282502        62.1100 
 100   0.0000       2.332696        63.4759 
 101   0.0000       2.369221        64.4698 
 102   0.0000       2.394125        65.1474 
 103   0.0000       2.425584        66.0035 
 104   0.0000       2.444564        66.5200 
 105   0.0000       2.447399        66.5971 
 106   0.0000       2.549201        69.3673 
 107   0.0000       2.579098        70.1808 
 108   0.0000       2.651512        72.1513 
 109   0.0000       2.701574        73.5136 
 110   0.0000       2.772850        75.4531 
 111   0.0000       2.860797        77.8463 
 112   0.0000       2.872770        78.1721 
 113   0.0000       2.949527        80.2607 
 114   0.0000       3.064466        83.3884 
 115   0.0000       3.307502        90.0017 
 116   0.0000      13.440856       365.7443 
 117   0.0000      13.742611       373.9554 
 118   0.0000      13.882814       377.7706 
 119   0.0000      14.031603       381.8193 
 120   0.0000      14.303571       389.2200 
 121   0.0000      19.359812       526.8073 
 122   0.0000      25.714246       699.7202 

                    ********************************
                    * MULLIKEN POPULATION ANALYSIS *
                    ********************************

-----------------------
MULLIKEN ATOMIC CHARGES
-----------------------
   0 C :   -0.705527
   1 C :    0.399737
   2 C :   -0.463281
   3 C :    0.320455
   4 C :   -0.712802
   5 O :   -0.592710
   6 N :   -0.684074
   7 H :    0.228143
   8 H :    0.247544
   9 H :    0.247544
  10 H :    0.472376
  11 H :    0.214455
  12 H :    0.312880
  13 H :    0.245023
  14 H :    0.245023
  15 H :    0.225214
Sum of atomic charges:    0.0000000

--------------------------------
MULLIKEN REDUCED ORBITAL CHARGES
--------------------------------
  0 C s       :     3.396787  s :     3.396787
      pz      :     1.167576  p :     3.273370
      px      :     0.951256
      py      :     1.154537
      dz2     :     0.007323  d :     0.035371
      dxz     :     0.006233
      dyz     :     0.006898
      dx2y2   :     0.009799
      dxy     :     0.005119
  1 C s       :     3.083159  s :     3.083159
      pz      :     0.812875  p :     2.433108
      px      :     0.864488
      py      :     0.755745
      dz2     :     0.005079  d :     0.083996
      dxz     :     0.007364
      dyz     :     0.020230
      dx2y2   :     0.027603
      dxy     :     0.023720
  2 C s       :     3.251033  s :     3.251033
      pz      :     1.248140  p :     3.178602
      px      :     0.874208
      py      :     1.056254
      dz2     :     0.004078  d :     0.033646
      dxz     :     0.003387
      dyz     :     0.002738
      dx2y2   :     0.011587
      dxy     :     0.011857
  3 C s       :     3.076164  s :     3.076164
      pz      :     0.810354  p :     2.532311
      px      :     0.901467
      py      :     0.820490
      dz2     :     0.004105  d :     0.071070
      dxz     :     0.009671
      dyz     :     0.012338
      dx2y2   :     0.024305
      dxy     :     0.020651
  4 C s       :     3.400805  s :     3.400805
      pz      :     1.156148  p :     3.276762
      px      :     1.095371
      py      :     1.025242
      dz2     :     0.007195  d :     0.035235
      dxz     :     0.002365
      dyz     :     0.010380
      dx2y2   :     0.008965
      dxy     :     0.006330
  5 O s       :     3.797380  s :     3.797380
      pz      :     1.763155  p :     4.764832
      px      :     1.518165
      py      :     1.483512
      dz2     :     0.004516  d :     0.030498
      dxz     :     0.000332
      dyz     :     0.006397
      dx2y2   :     0.014238
      dxy     :     0.005016
  6 N s       :     3.667628  s :     3.667628
      pz      :     1.320361  p :     3.982517
      px      :     1.240100
      py      :     1.422056
      dz2     :     0.004479  d :     0.033929
      dxz     :     0.000263
      dyz     :     0.008138
      dx2y2   :     0.015199
      dxy     :     0.005850
  7 H s       :     0.771857  s :     0.771857
  8 H s       :     0.752456  s :     0.752456
  9 H s       :     0.752456  s :     0.752456
 10 H s       :     0.527624  s :     0.527624
 11 H s       :     0.785545  s :     0.785545
 12 H s       :     0.687120  s :     0.687120
 13 H s       :     0.754977  s :     0.754977
 14 H s       :     0.754977  s :     0.754977
 15 H s       :     0.774786  s :     0.774786


                     *******************************
                     * LOEWDIN POPULATION ANALYSIS *
                     *******************************

----------------------
LOEWDIN ATOMIC CHARGES
----------------------
   0 C :   -0.356330
   1 C :    0.112588
   2 C :   -0.308842
   3 C :    0.041720
   4 C :   -0.369381
   5 O :   -0.304202
   6 N :   -0.374518
   7 H :    0.137647
   8 H :    0.150607
   9 H :    0.150607
  10 H :    0.328482
  11 H :    0.137905
  12 H :    0.223068
  13 H :    0.148820
  14 H :    0.148820
  15 H :    0.133010

-------------------------------
LOEWDIN REDUCED ORBITAL CHARGES
-------------------------------
  0 C s       :     2.945567  s :     2.945567
      pz      :     1.145959  p :     3.344292
      px      :     1.064601
      py      :     1.133732
      dz2     :     0.012931  d :     0.066471
      dxz     :     0.012064
      dyz     :     0.010842
      dx2y2   :     0.020229
      dxy     :     0.010404
  1 C s       :     2.845376  s :     2.845376
      pz      :     0.827002  p :     2.850707
      px      :     1.051355
      py      :     0.972350
      dz2     :     0.011275  d :     0.191329
      dxz     :     0.014067
      dyz     :     0.042337
      dx2y2   :     0.067957
      dxy     :     0.055693
  2 C s       :     2.890352  s :     2.890352
      pz      :     1.211751  p :     3.338768
      px      :     1.048200
      py      :     1.078816
      dz2     :     0.006912  d :     0.079722
      dxz     :     0.007384
      dyz     :     0.004362
      dx2y2   :     0.030705
      dxy     :     0.030360
  3 C s       :     2.853425  s :     2.853425
      pz      :     0.817327  p :     2.940931
      px      :     1.065470
      py      :     1.058134
      dz2     :     0.008892  d :     0.163925
      dxz     :     0.020118
      dyz     :     0.023602
      dx2y2   :     0.060071
      dxy     :     0.051242
  4 C s       :     2.954262  s :     2.954262
      pz      :     1.140522  p :     3.349078
      px      :     1.111063
      py      :     1.097493
      dz2     :     0.012539  d :     0.066041
      dxz     :     0.003319
      dyz     :     0.018814
      dx2y2   :     0.017618
      dxy     :     0.013751
  5 O s       :     3.483412  s :     3.483412
      pz      :     1.751449  p :     4.765360
      px      :     1.485861
      py      :     1.528050
      dz2     :     0.007038  d :     0.055431
      dxz     :     0.001027
      dyz     :     0.009329
      dx2y2   :     0.026128
      dxy     :     0.011908
  6 N s       :     3.279270  s :     3.279270
      pz      :     1.315667  p :     4.031177
      px      :     1.240822
      py      :     1.474689
      dz2     :     0.007152  d :     0.064071
      dxz     :     0.001171
      dyz     :     0.010335
      dx2y2   :     0.030880
      dxy     :     0.014534
  7 H s       :     0.862353  s :     0.862353
  8 H s       :     0.849393  s :     0.849393
  9 H s       :     0.849393  s :     0.849393
 10 H s       :     0.671518  s :     0.671518
 11 H s       :     0.862095  s :     0.862095
 12 H s       :     0.776932  s :     0.776932
 13 H s       :     0.851180  s :     0.851180
 14 H s       :     0.851180  s :     0.851180
 15 H s       :     0.866990  s :     0.866990


                      *****************************
                      * MAYER POPULATION ANALYSIS *
                      *****************************

  NA   - Mulliken gross atomic population
  ZA   - Total nuclear charge
  QA   - Mulliken gross atomic charge
  VA   - Mayer's total valence
  BVA  - Mayer's bonded valence
  FA   - Mayer's free valence

  ATOM       NA         ZA         QA         VA         BVA        FA
  0 C      6.7055     6.0000    -0.7055     3.7131     3.7131     0.0000
  1 C      5.6003     6.0000     0.3997     3.8287     3.8287    -0.0000
  2 C      6.4633     6.0000    -0.4633     3.6598     3.6598     0.0000
  3 C      5.6795     6.0000     0.3205     3.8515     3.8515    -0.0000
  4 C      6.7128     6.0000    -0.7128     3.6814     3.6814     0.0000
  5 O      8.5927     8.0000    -0.5927     2.0155     2.0155    -0.0000
  6 N      7.6841     7.0000    -0.6841     3.0001     3.0001     0.0000
  7 H      0.7719     1.0000     0.2281     0.9125     0.9125     0.0000
  8 H      0.7525     1.0000     0.2475     0.9004     0.9004    -0.0000
  9 H      0.7525     1.0000     0.2475     0.9004     0.9004    -0.0000
 10 H      0.5276     1.0000     0.4724     0.8028     0.8028    -0.0000
 11 H      0.7855     1.0000     0.2145     0.9283     0.9283    -0.0000
 12 H      0.6871     1.0000     0.3129     0.8742     0.8742     0.0000
 13 H      0.7550     1.0000     0.2450     0.9002     0.9002    -0.0000
 14 H      0.7550     1.0000     0.2450     0.9002     0.9002    -0.0000
 15 H      0.7748     1.0000     0.2252     0.9175     0.9175    -0.0000

  Mayer bond orders larger than 0.100000
B(  0-C ,  1-C ) :   0.9912 B(  0-C ,  7-H ) :   0.9279 B(  0-C ,  8-H ) :   0.9056 
B(  0-C ,  9-H ) :   0.9056 B(  1-C ,  2-C ) :   1.5514 B(  1-C ,  5-O ) :   1.2704 
B(  2-C ,  3-C ) :   1.1132 B(  2-C , 11-H ) :   0.9245 B(  3-C ,  4-C ) :   0.9690 
B(  3-C ,  6-N ) :   1.8151 B(  4-C , 13-H ) :   0.9094 B(  4-C , 14-H ) :   0.9094 
B(  4-C , 15-H ) :   0.9274 B(  5-O , 10-H ) :   0.5973 B(  6-N , 10-H ) :   0.1916 
B(  6-N , 12-H ) :   0.8520 

-------
TIMINGS
-------

Total SCF time: 0 days 0 hours 1 min 51 sec 

Total time                  ....     111.323 sec
Sum of individual times     ....     103.633 sec  ( 93.1%)

Fock matrix formation       ....      86.907 sec  ( 78.1%)
  Split-RI-J                ....      10.507 sec  ( 12.1% of F)
  Chain of spheres X        ....      31.251 sec  ( 36.0% of F)
  XC integration            ....      25.027 sec  ( 28.8% of F)
    Basis function eval.    ....       4.952 sec  ( 19.8% of XC)
    Density eval.           ....       2.395 sec  (  9.6% of XC)
    XC-Functional eval.     ....       1.752 sec  (  7.0% of XC)
    XC-Potential eval.      ....       1.425 sec  (  5.7% of XC)
Diagonalization             ....       0.919 sec  (  0.8%)
Density matrix formation    ....       0.131 sec  (  0.1%)
Population analysis         ....       0.806 sec  (  0.7%)
Initial guess               ....       0.012 sec  (  0.0%)
Orbital Transformation      ....       0.000 sec  (  0.0%)
Orbital Orthonormalization  ....       0.000 sec  (  0.0%)
DIIS solution               ....       4.658 sec  (  4.2%)
SOSCF solution              ....       2.696 sec  (  2.4%)
Grid generation             ....       7.503 sec  (  6.7%)

Maximum memory used throughout the entire SCF-calculation: 53.9 MB


-------------------------------------------------------------------------------
                          DFT DISPERSION CORRECTION                            
                                                                               
                              DFTD3 V3.1  Rev 1                                
                          USING Becke-Johnson damping                          
-------------------------------------------------------------------------------
The PBEh-3c composite method is recognized
Using three-body term ABC
Active option DFTDOPT                   ...         4   

molecular C6(AA) [au] = 2205.382573 


            DFT-D V3
 parameters
 s6 scaling factor         :     1.0000 
 a1 scaling factor         :     0.4860 
 s8 scaling factor         :     0.0000 
 a2 scaling factor         :     4.5000 
 Damping factor alpha9(ATM):    16.0000 
 ad hoc parameters k1-k3   :    16.0000     1.3333    -4.0000 

 Edisp/kcal,au: -4.648232101426  -0.007407428569 
 E6   /kcal   :  -4.655737125 
 E8   /kcal   :  -0.000000000 
 E6(ABC)      :   0.007505024 
 % E8         :   0.000000000 
 % E6(ABC)    :  -0.161459751 

-------------------------   ----------------
Dispersion correction           -0.007407429
-------------------------   ----------------

------------------   -----------------
gCP correction             0.025703662
------------------   -----------------

-------------------------   --------------------
FINAL SINGLE POINT ENERGY      -325.211556299930
-------------------------   --------------------


                            ***************************************
                            *     ORCA property calculations      *
                            ***************************************

                                    ---------------------
                                    Active property flags
                                    ---------------------
   (+) Dipole Moment


------------------------------------------------------------------------------
                       ORCA ELECTRIC PROPERTIES CALCULATION
------------------------------------------------------------------------------

Dipole Moment Calculation                       ... on
Quadrupole Moment Calculation                   ... off
Polarizability Calculation                      ... off
GBWName                                         ... pbeh-3c.gbw
Electron density                                ... pbeh-3c.scfp
The origin for moment calculation is the CENTER OF MASS  = ( 0.056683, -0.640342  0.000000)

-------------
DIPOLE MOMENT
-------------
                                X             Y             Z
Electronic contribution:      0.64164      -3.89609      -0.00000
Nuclear contribution   :     -0.42506       4.86412       0.00000
                        -----------------------------------------
Total Dipole Moment    :      0.21658       0.96803      -0.00000
                        -----------------------------------------
Magnitude (a.u.)       :      0.99196
Magnitude (Debye)      :      2.52137



--------------------
Rotational spectrum 
--------------------
 
Rotational constants in cm-1:     0.187440     0.057128     0.044504 
Rotational constants in MHz :  5619.306416  1712.659579  1334.185491 

 Dipole components along the rotational axes: 
x,y,z [a.u.] :    -0.617910     0.776003    -0.000000 
x,y,z [Debye]:    -1.570603     1.972444    -0.000000 

 

Timings for individual modules:

Sum of individual times         ...      114.357 sec (=   1.906 min)
GTO integral calculation        ...        2.172 sec (=   0.036 min)   1.9 %
SCF iterations                  ...      112.185 sec (=   1.870 min)  98.1 %
                             ****ORCA TERMINATED NORMALLY****
TOTAL RUN TIME: 0 days 0 hours 1 minutes 57 seconds 294 msec
