
                                 *****************
                                 * O   R   C   A *
                                 *****************

                                            #,                                       
                                            ###                                      
                                            ####                                     
                                            #####                                    
                                            ######                                   
                                           ########,                                 
                                     ,,################,,,,,                         
                               ,,#################################,,                 
                          ,,##########################################,,             
                       ,#########################################, ''#####,          
                    ,#############################################,,   '####,        
                  ,##################################################,,,,####,       
                ,###########''''           ''''###############################       
              ,#####''   ,,,,##########,,,,          '''####'''          '####       
            ,##' ,,,,###########################,,,                        '##       
           ' ,,###''''                  '''############,,,                           
         ,,##''                                '''############,,,,        ,,,,,,###''
      ,#''                                            '''#######################'''  
     '                                                          ''''####''''         
             ,#######,   #######,   ,#######,      ##                                
            ,#'     '#,  ##    ##  ,#'     '#,    #''#        ######   ,####,        
            ##       ##  ##   ,#'  ##            #'  '#       #        #'  '#        
            ##       ##  #######   ##           ,######,      #####,   #    #        
            '#,     ,#'  ##    ##  '#,     ,#' ,#      #,         ##   #,  ,#        
             '#######'   ##     ##  '#######'  #'      '#     #####' # '####'        



                  #######################################################
                  #                        -***-                        #
                  #          Department of theory and spectroscopy      #
                  #    Directorship and core code : Frank Neese         #
                  #        Max Planck Institute fuer Kohlenforschung    #
                  #                Kaiser Wilhelm Platz 1               #
                  #                 D-45470 Muelheim/Ruhr               #
                  #                      Germany                        #
                  #                                                     #
                  #                  All rights reserved                #
                  #                        -***-                        #
                  #######################################################


                         Program Version 5.0.3 -  RELEASE  -


 With contributions from (in alphabetic order):
   Daniel Aravena         : Magnetic Suceptibility
   Michael Atanasov       : Ab Initio Ligand Field Theory (pilot matlab implementation)
   Alexander A. Auer      : GIAO ZORA, VPT2 properties, NMR spectrum
   Ute Becker             : Parallelization
   Giovanni Bistoni       : ED, misc. LED, open-shell LED, HFLD
   Martin Brehm           : Molecular dynamics
   Dmytro Bykov           : SCF Hessian
   Vijay G. Chilkuri      : MRCI spin determinant printing, contributions to CSF-ICE
   Dipayan Datta          : RHF DLPNO-CCSD density
   Achintya Kumar Dutta   : EOM-CC, STEOM-CC
   Dmitry Ganyushin       : Spin-Orbit,Spin-Spin,Magnetic field MRCI
   Miquel Garcia          : C-PCM and meta-GGA Hessian, CC/C-PCM, Gaussian charge scheme
   Yang Guo               : DLPNO-NEVPT2, F12-NEVPT2, CIM, IAO-localization
   Andreas Hansen         : Spin unrestricted coupled pair/coupled cluster methods
   Benjamin Helmich-Paris : MC-RPA, TRAH-SCF, COSX integrals
   Lee Huntington         : MR-EOM, pCC
   Robert Izsak           : Overlap fitted RIJCOSX, COSX-SCS-MP3, EOM
   Marcus Kettner         : VPT2
   Christian Kollmar      : KDIIS, OOCD, Brueckner-CCSD(T), CCSD density, CASPT2, CASPT2-K
   Simone Kossmann        : Meta GGA functionals, TD-DFT gradient, OOMP2, MP2 Hessian
   Martin Krupicka        : Initial AUTO-CI
   Lucas Lang             : DCDCAS
   Marvin Lechner         : AUTO-CI (C++ implementation), FIC-MRCC
   Dagmar Lenk            : GEPOL surface, SMD
   Dimitrios Liakos       : Extrapolation schemes; Compound Job, initial MDCI parallelization
   Dimitrios Manganas     : Further ROCIS development; embedding schemes
   Dimitrios Pantazis     : SARC Basis sets
   Anastasios Papadopoulos: AUTO-CI, single reference methods and gradients
   Taras Petrenko         : DFT Hessian,TD-DFT gradient, ASA, ECA, R-Raman, ABS, FL, XAS/XES, NRVS
   Peter Pinski           : DLPNO-MP2, DLPNO-MP2 Gradient
   Christoph Reimann      : Effective Core Potentials
   Marius Retegan         : Local ZFS, SOC
   Christoph Riplinger    : Optimizer, TS searches, QM/MM, DLPNO-CCSD(T), (RO)-DLPNO pert. Triples
   Tobias Risthaus        : Range-separated hybrids, TD-DFT gradient, RPA, STAB
   Michael Roemelt        : Original ROCIS implementation
   Masaaki Saitow         : Open-shell DLPNO-CCSD energy and density
   Barbara Sandhoefer     : DKH picture change effects
   Avijit Sen             : IP-ROCIS
   Kantharuban Sivalingam : CASSCF convergence, NEVPT2, FIC-MRCI
   Bernardo de Souza      : ESD, SOC TD-DFT
   Georgi Stoychev        : AutoAux, RI-MP2 NMR, DLPNO-MP2 response
   Willem Van den Heuvel  : Paramagnetic NMR
   Boris Wezisla          : Elementary symmetry handling
   Frank Wennmohs         : Technical directorship


 We gratefully acknowledge several colleagues who have allowed us to
 interface, adapt or use parts of their codes:
   Stefan Grimme, W. Hujo, H. Kruse, P. Pracht,  : VdW corrections, initial TS optimization,
                  C. Bannwarth, S. Ehlert          DFT functionals, gCP, sTDA/sTD-DF
   Ed Valeev, F. Pavosevic, A. Kumar             : LibInt (2-el integral package), F12 methods
   Garnet Chan, S. Sharma, J. Yang, R. Olivares  : DMRG
   Ulf Ekstrom                                   : XCFun DFT Library
   Mihaly Kallay                                 : mrcc  (arbitrary order and MRCC methods)
   Jiri Pittner, Ondrej Demel                    : Mk-CCSD
   Frank Weinhold                                : gennbo (NPA and NBO analysis)
   Christopher J. Cramer and Donald G. Truhlar   : smd solvation model
   Lars Goerigk                                  : TD-DFT with DH, B97 family of functionals
   V. Asgeirsson, H. Jonsson                     : NEB implementation
   FAccTs GmbH                                   : IRC, NEB, NEB-TS, DLPNO-Multilevel, CI-OPT
                                                   MM, QMMM, 2- and 3-layer-ONIOM, Crystal-QMMM,
                                                   LR-CPCM, SF, NACMEs, symmetry and pop. for TD-DFT,
                                                   nearIR, NL-DFT gradient (VV10), updates on ESD,
                                                   ML-optimized integration grids
   S Lehtola, MJT Oliveira, MAL Marques          : LibXC Library
   Liviu Ungur et al                             : ANISO software


 Your calculation uses the libint2 library for the computation of 2-el integrals
 For citations please refer to: http://libint.valeyev.net

 Your ORCA version has been built with support for libXC version: 5.1.0
 For citations please refer to: https://tddft.org/programs/libxc/

 This ORCA versions uses:
   CBLAS   interface :  Fast vector & matrix operations
   LAPACKE interface :  Fast linear algebra routines
   SCALAPACK package :  Parallel linear algebra routines
   Shared memory     :  Shared parallel matrices
   BLAS/LAPACK       :  OpenBLAS 0.3.15  USE64BITINT DYNAMIC_ARCH NO_AFFINITY Haswell SINGLE_THREADED
        Core in use  :  Haswell
   Copyright (c) 2011-2014, The OpenBLAS Project




***************************************
The coordinates will be read from file: 1a.xyz
***************************************


Your calculation utilizes the geometrical counterpoise correction gCP
Please cite in your paper:
H.Kruse, S. Grimme J.Chem.Phys., 136, (2012), 154101 
   

Your calculation utilizes the atom-pairwise dispersion correction
with the Becke-Johnson damping scheme (D3BJ)
Cite in your paper:
S.Grimme, S.Ehrlich, L.Goerigk, J Comput Chem, (2011), 32, 1456–1465 
S.Grimme, J.Antony, S.Ehrlich and H.Krieg, J.Chem.Phys., 132, (2010), 154104 
   

Your calculation employs the composite approach PBEh-3c.
Please cite in your paper:
S. Grimme, J. G. Brandenburg, C. Bannwarth, A. Hansen J.Chem.Phys., 143, (2015), 054107 
   

================================================================================

----- Orbital basis set information -----
Your calculation utilizes the basis: def2-mSVP

----- AuxJ basis set information -----
Your calculation utilizes the auxiliary basis: def2/J
   F. Weigend, Phys. Chem. Chem. Phys. 8, 1057 (2006).

================================================================================
                                        WARNINGS
                       Please study these warnings very carefully!
================================================================================


INFO   : the flag for use of the SHARK integral package has been found!

================================================================================
                                       INPUT FILE
================================================================================
NAME = pbeh-3c.inp
|  1> ! PBEh-3c def2/J TightSCF DefGrid3
|  2> 
|  3> %maxcore 60000
|  4> 
|  5> %pal
|  6> nprocs 4
|  7> end
|  8> 
|  9> *xyzfile -1 1 1a.xyz
| 10> 
| 11>                          ****END OF INPUT****
================================================================================

                       ****************************
                       * Single Point Calculation *
                       ****************************

---------------------------------
CARTESIAN COORDINATES (ANGSTROEM)
---------------------------------
  H     -5.020963    2.622594    0.945546
  O     -4.240039    2.188895    0.566550
  C     -4.492882    1.964778   -0.828899
  H     -4.954213    2.847784   -1.286726
  H     -5.162346    1.105282   -0.971604
  C     -3.194121    1.660329   -1.536937
  H     -3.427565    1.407266   -2.578706
  O     -2.321998    2.831052   -1.536356
  C     -0.973221    2.435899   -1.382441
  H     -0.347994    2.913683   -2.138356
  N     -0.472512    2.909250   -0.051681
  C     -1.324058    3.327231    0.939196
  H     -2.378467    3.250169    0.696582
  C     -0.880202    3.792637    2.133839
  H     -1.577403    4.117835    2.894468
  C      0.530983    3.877318    2.398680
  O      1.070353    4.299783    3.427096
  N      1.326850    3.403893    1.339064
  H      2.334547    3.443569    1.468435
  C      0.906355    2.914354    0.119620
  O      1.683732    2.537389   -0.757328
  C     -2.325023    0.551737   -0.937911
  H     -2.331269    0.592326    0.155843
  C     -0.942064    0.909310   -1.493476
  H     -0.106878    0.464647   -0.947474
  O     -0.862350    0.584276   -2.883683
  H     -1.447121   -0.184724   -3.021412
  O     -2.799443   -0.726111   -1.374766
  P     -2.612847   -2.020857   -0.354058
  O     -3.378970   -3.123978   -1.015778
  O     -2.847689   -1.585407    1.057537
  O     -1.001419   -2.323086   -0.438472
  C     -0.447871   -2.799328   -1.681797
  H     -0.713736   -2.122073   -2.499405
  H     -0.843710   -3.794898   -1.909441
  C      1.055174   -2.883119   -1.561513
  H      1.446882   -3.283567   -2.506107
  O      1.611991   -1.557701   -1.346048
  C      2.762628   -1.636422   -0.522428
  H      3.618095   -1.164558   -1.006269
  N      2.512421   -0.874214    0.734713
  C      1.247447   -0.709385    1.239610
  H      0.455460   -1.148085    0.641256
  C      1.004215   -0.045895    2.397210
  H     -0.005734    0.068327    2.768064
  C      2.098478    0.501359    3.159841
  O      2.022268    1.114261    4.228952
  N      3.356548    0.276281    2.573287
  H      4.166721    0.630467    3.075849
  C      3.635397   -0.387499    1.397680
  O      4.779573   -0.559897    0.978447
  C      1.604648   -3.718062   -0.404233
  H      1.006733   -3.572081    0.500711
  C      3.014271   -3.122195   -0.231453
  H      3.435645   -3.278292    0.767592
  O      3.881309   -3.639170   -1.240139
  H      3.576491   -4.555702   -1.400096
  O      1.626667   -5.093859   -0.784071
  H      1.662223   -5.633815    0.023396

----------------------------
CARTESIAN COORDINATES (A.U.)
----------------------------
  NO LB      ZA    FRAG     MASS         X           Y           Z
   0 H     1.0000    0     1.008   -9.488245    4.955984    1.786823
   1 O     8.0000    0    15.999   -8.012512    4.136413    1.070624
   2 C     6.0000    0    12.011   -8.490317    3.712892   -1.566392
   3 H     1.0000    0     1.008   -9.362105    5.381532   -2.431560
   4 H     1.0000    0     1.008   -9.755420    2.088681   -1.836065
   5 C     6.0000    0    12.011   -6.036014    3.137567   -2.904390
   6 H     1.0000    0     1.008   -6.477160    2.659348   -4.873049
   7 O     8.0000    0    15.999   -4.387941    5.349912   -2.903291
   8 C     6.0000    0    12.011   -1.839122    4.603182   -2.612435
   9 H     1.0000    0     1.008   -0.657612    5.506063   -4.040907
  10 N     7.0000    0    14.007   -0.892918    5.497686   -0.097663
  11 C     6.0000    0    12.011   -2.502108    6.287555    1.774823
  12 H     1.0000    0     1.008   -4.494651    6.141928    1.316350
  13 C     6.0000    0    12.011   -1.663341    7.167046    4.032371
  14 H     1.0000    0     1.008   -2.980860    7.781581    5.469751
  15 C     6.0000    0    12.011    1.003412    7.327068    4.532848
  16 O     8.0000    0    15.999    2.022675    8.125412    6.476273
  17 N     7.0000    0    14.007    2.507384    6.432425    2.530464
  18 H     1.0000    0     1.008    4.411654    6.507402    2.774941
  19 C     6.0000    0    12.011    1.712763    5.507331    0.226049
  20 O     8.0000    0    15.999    3.181793    4.794971   -1.431142
  21 C     6.0000    0    12.011   -4.393658    1.042632   -1.772395
  22 H     1.0000    0     1.008   -4.405460    1.119334    0.294502
  23 C     6.0000    0    12.011   -1.780243    1.718347   -2.822260
  24 H     1.0000    0     1.008   -0.201970    0.878056   -1.790466
  25 O     8.0000    0    15.999   -1.629606    1.104122   -5.449372
  26 H     1.0000    0     1.008   -2.734663   -0.349078   -5.709642
  27 O     8.0000    0    15.999   -5.290180   -1.372150   -2.597931
  28 P    15.0000    0    30.974   -4.937565   -3.818866   -0.669073
  29 O     8.0000    0    15.999   -6.385329   -5.903463   -1.919542
  30 O     8.0000    0    15.999   -5.381353   -2.995985    1.998456
  31 O     8.0000    0    15.999   -1.892408   -4.389997   -0.828593
  32 C     6.0000    0    12.011   -0.846353   -5.289963   -3.178135
  33 H     1.0000    0     1.008   -1.348766   -4.010137   -4.723191
  34 H     1.0000    0     1.008   -1.594380   -7.171318   -3.608321
  35 C     6.0000    0    12.011    1.993991   -5.448305   -2.950832
  36 H     1.0000    0     1.008    2.734211   -6.205043   -4.735856
  37 O     8.0000    0    15.999    3.046222   -2.943628   -2.543663
  38 C     6.0000    0    12.011    5.220610   -3.092390   -0.987246
  39 H     1.0000    0     1.008    6.837209   -2.200696   -1.901573
  40 N     7.0000    0    14.007    4.747788   -1.652024    1.388407
  41 C     6.0000    0    12.011    2.357334   -1.340544    2.342523
  42 H     1.0000    0     1.008    0.860695   -2.169566    1.211798
  43 C     6.0000    0    12.011    1.897692   -0.086730    4.530070
  44 H     1.0000    0     1.008   -0.010835    0.129119    5.230884
  45 C     6.0000    0    12.011    3.965549    0.947430    5.971233
  46 O     8.0000    0    15.999    3.821533    2.105649    7.991561
  47 N     7.0000    0    14.007    6.342956    0.522095    4.862809
  48 H     1.0000    0     1.008    7.873962    1.191411    5.812513
  49 C     6.0000    0    12.011    6.869905   -0.732267    2.641233
  50 O     8.0000    0    15.999    9.032084   -1.058052    1.848996
  51 C     6.0000    0    12.011    3.032345   -7.026119   -0.763890
  52 H     1.0000    0     1.008    1.902449   -6.750255    0.946206
  53 C     6.0000    0    12.011    5.696147   -5.900093   -0.437384
  54 H     1.0000    0     1.008    6.492428   -6.195074    1.450538
  55 O     8.0000    0    15.999    7.334611   -6.877034   -2.343524
  56 H     1.0000    0     1.008    6.758589   -8.609030   -2.645798
  57 O     8.0000    0    15.999    3.073956   -9.625998   -1.481680
  58 H     1.0000    0     1.008    3.141146  -10.646367    0.044213

--------------------------------
INTERNAL COORDINATES (ANGSTROEM)
--------------------------------
 H      0   0   0     0.000000000000     0.00000000     0.00000000
 O      1   0   0     0.970347778616     0.00000000     0.00000000
 C      2   1   0     1.435770444617   107.91767836     0.00000000
 H      3   2   1     1.096417745480   110.74589935    43.59133107
 H      3   2   1     1.098762260375   110.83220532   282.95769165
 C      3   2   1     1.510227232699   109.61422248   164.11021343
 H      6   3   2     1.097187428657   107.97916447   175.08445618
 O      6   3   2     1.459859654757   110.60362166   293.30973021
 C      8   6   3     1.413872087593   110.23137845   143.27891627
 H      9   8   6     1.091143777977   110.41560000   130.62480867
 N      9   8   6     1.498563772081   109.09489035   247.44211110
 C     11   9   8     1.371742236137   122.02525423    15.45427794
 H     12  11   9     1.084701422345   114.84886640     2.30315504
 C     12  11   9     1.356754617954   122.51214481   181.88103579
 H     14  12  11     1.081850166985   120.75424756   179.81677248
 C     14  12  11     1.438316007082   120.21869421     0.68056197
 O     16  14  12     1.235733915716   126.98553793   178.70247113
 N     16  14  12     1.407239150968   113.35521334   358.19051486
 H     18  16  14     1.016741727034   116.84536272   179.71215722
 C     18  16  14     1.379677092058   127.77247689     1.32023287
 O     20  18  16     1.231037639756   123.08090476   178.98727067
 C      6   3   2     1.530731601980   116.79470221    51.91887648
 H     22   6   3     1.094525284980   111.15921774   320.63697538
 C      9   8   6     1.530938871676   106.87039370     8.57237631
 H     24   9   8     1.092418768696   112.65599777   207.16398800
 O     24   9   8     1.429922377642   107.35615897    85.24600830
 H     26  24   9     0.975852297985   106.43559169   220.18087557
 O     22   6   3     1.431366579474   109.81166843    82.14540846
 P     28  22   6     1.659225745072   118.13906098   211.16568521
 O     29  28  22     1.497229180830   104.21144666   171.97985581
 O     29  28  22     1.495783880283   109.61642263    38.03717075
 O     29  28  22     1.641696401907   102.85066782   286.91808036
 C     32  29  28     1.441900678639   118.81387411   293.21571378
 H     33  32  29     1.094459781638   110.27468315    54.18450146
 H     33  32  29     1.095294789258   109.91884336   294.44667637
 C     33  32  29     1.510176790940   109.37412198   174.79184096
 H     36  33  32     1.098204031853   107.86165472   177.88018143
 O     36  33  32     1.453686062351   110.02596769   296.50167561
 C     38  36  33     1.417219983738   110.27215767   146.95567415
 H     39  38  36     1.090221109133   110.80060004   125.27044853
 N     39  38  36     1.491298327334   108.98335681   242.17978246
 C     41  39  38     1.371950337247   121.75785270    27.59014384
 H     42  41  39     1.085231681705   114.92343258   358.30325112
 C     42  41  39     1.356251463671   122.56405499   178.44718316
 H     44  42  41     1.081931942674   120.77187988   179.90308676
 C     44  42  41     1.441701701519   120.07121560   359.02994001
 O     46  44  42     1.234688920965   126.84275207   180.64204479
 N     46  44  42     1.406216546874   113.43096182     0.43730368
 H     48  46  44     1.017053335620   116.79605579   180.80150561
 C     48  46  44     1.378554655022   127.86066865   359.84114918
 O     50  48  46     1.230697319221   123.09326192   181.66026015
 C     36  33  32     1.529166019993   116.62861570    55.06021432
 H     52  36  33     1.094411224694   110.89394138   320.57809886
 C     39  38  36     1.534766844450   107.28191475     2.74201465
 H     54  39  38     1.095451461508   111.95759905   213.42232284
 O     54  39  38     1.427047667567   108.44023080    90.54803092
 H     56  54  39     0.979046451612   105.39412905   215.96482312
 O     52  36  33     1.427437633218   109.29413168    83.16173292
 H     58  52  36     0.972018633098   108.35576809   200.13081494

---------------------------
INTERNAL COORDINATES (A.U.)
---------------------------
 H      0   0   0     0.000000000000     0.00000000     0.00000000
 O      1   0   0     1.833691556244     0.00000000     0.00000000
 C      2   1   0     2.713212931505   107.91767836     0.00000000
 H      3   2   1     2.071929267328   110.74589935    43.59133107
 H      3   2   1     2.076359758397   110.83220532   282.95769165
 C      3   2   1     2.853915869790   109.61422248   164.11021343
 H      6   3   2     2.073383757744   107.97916447   175.08445618
 O      6   3   2     2.758734941451   110.60362166   293.30973021
 C      8   6   3     2.671831033947   110.23137845   143.27891627
 H      9   8   6     2.061962913108   110.41560000   130.62480867
 N      9   8   6     2.831875123449   109.09489035   247.44211110
 C     11   9   8     2.592217152632   122.02525423    15.45427794
 H     12  11   9     2.049788625308   114.84886640     2.30315504
 C     12  11   9     2.563894658866   122.51214481   181.88103579
 H     14  12  11     2.044400533538   120.75424756   179.81677248
 C     14  12  11     2.718023347420   120.21869421     0.68056197
 O     16  14  12     2.335198675101   126.98553793   178.70247113
 N     16  14  12     2.659296600262   113.35521334   358.19051486
 H     18  16  14     1.921363413024   116.84536272   179.71215722
 C     18  16  14     2.607211857234   127.77247689     1.32023287
 O     20  18  16     2.326323999687   123.08090476   178.98727067
 C      6   3   2     2.892663512280   116.79470221    51.91887648
 H     22   6   3     2.068353035265   111.15921774   320.63697538
 C      9   8   6     2.893055195241   106.87039370     8.57237631
 H     24   9   8     2.064372296391   112.65599777   207.16398800
 O     24   9   8     2.702161686509   107.35615897    85.24600830
 H     26  24   9     1.844093590349   106.43559169   220.18087557
 O     22   6   3     2.704890832453   109.81166843    82.14540846
 P     28  22   6     3.135482252537   118.13906098   211.16568521
 O     29  28  22     2.829353111483   104.21144666   171.97985581
 O     29  28  22     2.826621889268   109.61642263    38.03717075
 O     29  28  22     3.102356594648   102.85066782   286.91808036
 C     32  29  28     2.724797394942   118.81387411   293.21571378
 H     33  32  29     2.068229251886   110.27468315    54.18450146
 H     33  32  29     2.069807187608   109.91884336   294.44667637
 C     33  32  29     2.853820548680   109.37412198   174.79184096
 H     36  33  32     2.075304859370   107.86165472   177.88018143
 O     36  33  32     2.747068542541   110.02596769   296.50167561
 C     38  36  33     2.678157640784   110.27215767   146.95567415
 H     39  38  36     2.060219321681   110.80060004   125.27044853
 N     39  38  36     2.818145422637   108.98335681   242.17978246
 C     41  39  38     2.592610406738   121.75785270    27.59014384
 H     42  41  39     2.050790670278   114.92343258   358.30325112
 C     42  41  39     2.562943835067   122.56405499   178.44718316
 H     44  42  41     2.044555067195   120.77187988   179.90308676
 C     44  42  41     2.724421382680   120.07121560   359.02994001
 O     46  44  42     2.333223921211   126.84275207   180.64204479
 N     46  44  42     2.657364158580   113.43096182     0.43730368
 H     48  46  44     1.921952267914   116.79605579   180.80150561
 C     48  46  44     2.605090758633   127.86066865   359.84114918
 O     50  48  46     2.325680887079   123.09326192   181.66026015
 C     36  33  32     2.889704991085   116.62861570    55.06021432
 H     52  36  33     2.068137492562   110.89394138   320.57809886
 C     39  38  36     2.900289015433   107.28191475     2.74201465
 H     54  39  38     2.070103255254   111.95759905   213.42232284
 O     54  39  38     2.696729271752   108.44023080    90.54803092
 H     56  54  39     1.850129665935   105.39412905   215.96482312
 O     52  36  33     2.697466200035   109.29413168    83.16173292
 H     58  52  36     1.836849013624   108.35576809   200.13081494

---------------------
BASIS SET INFORMATION
---------------------
There are 5 groups of distinct atoms

 Group   1 Type H   : 4s contracted to 2s pattern {31}
 Group   2 Type O   : 8s4p1d contracted to 4s2p1d pattern {5111/31/1}
 Group   3 Type C   : 8s4p1d contracted to 4s2p1d pattern {5111/31/1}
 Group   4 Type N   : 8s4p1d contracted to 4s2p1d pattern {5111/31/1}
 Group   5 Type P   : 10s7p1d contracted to 4s3p1d pattern {5311/511/1}

Atom   0H    basis set group =>   1
Atom   1O    basis set group =>   2
Atom   2C    basis set group =>   3
Atom   3H    basis set group =>   1
Atom   4H    basis set group =>   1
Atom   5C    basis set group =>   3
Atom   6H    basis set group =>   1
Atom   7O    basis set group =>   2
Atom   8C    basis set group =>   3
Atom   9H    basis set group =>   1
Atom  10N    basis set group =>   4
Atom  11C    basis set group =>   3
Atom  12H    basis set group =>   1
Atom  13C    basis set group =>   3
Atom  14H    basis set group =>   1
Atom  15C    basis set group =>   3
Atom  16O    basis set group =>   2
Atom  17N    basis set group =>   4
Atom  18H    basis set group =>   1
Atom  19C    basis set group =>   3
Atom  20O    basis set group =>   2
Atom  21C    basis set group =>   3
Atom  22H    basis set group =>   1
Atom  23C    basis set group =>   3
Atom  24H    basis set group =>   1
Atom  25O    basis set group =>   2
Atom  26H    basis set group =>   1
Atom  27O    basis set group =>   2
Atom  28P    basis set group =>   5
Atom  29O    basis set group =>   2
Atom  30O    basis set group =>   2
Atom  31O    basis set group =>   2
Atom  32C    basis set group =>   3
Atom  33H    basis set group =>   1
Atom  34H    basis set group =>   1
Atom  35C    basis set group =>   3
Atom  36H    basis set group =>   1
Atom  37O    basis set group =>   2
Atom  38C    basis set group =>   3
Atom  39H    basis set group =>   1
Atom  40N    basis set group =>   4
Atom  41C    basis set group =>   3
Atom  42H    basis set group =>   1
Atom  43C    basis set group =>   3
Atom  44H    basis set group =>   1
Atom  45C    basis set group =>   3
Atom  46O    basis set group =>   2
Atom  47N    basis set group =>   4
Atom  48H    basis set group =>   1
Atom  49C    basis set group =>   3
Atom  50O    basis set group =>   2
Atom  51C    basis set group =>   3
Atom  52H    basis set group =>   1
Atom  53C    basis set group =>   3
Atom  54H    basis set group =>   1
Atom  55O    basis set group =>   2
Atom  56H    basis set group =>   1
Atom  57O    basis set group =>   2
Atom  58H    basis set group =>   1
---------------------------------
AUXILIARY/J BASIS SET INFORMATION
---------------------------------
There are 5 groups of distinct atoms

 Group   1 Type H   : 5s2p1d contracted to 3s1p1d pattern {311/2/1}
 Group   2 Type O   : 12s5p4d2f1g contracted to 6s4p3d1f1g pattern {711111/2111/211/2/1}
 Group   3 Type C   : 12s5p4d2f1g contracted to 6s4p3d1f1g pattern {711111/2111/211/2/1}
 Group   4 Type N   : 12s5p4d2f1g contracted to 6s4p3d1f1g pattern {711111/2111/211/2/1}
 Group   5 Type P   : 14s5p5d2f1g contracted to 8s4p3d1f1g pattern {71111111/2111/311/2/1}

Atom   0H    basis set group =>   1
Atom   1O    basis set group =>   2
Atom   2C    basis set group =>   3
Atom   3H    basis set group =>   1
Atom   4H    basis set group =>   1
Atom   5C    basis set group =>   3
Atom   6H    basis set group =>   1
Atom   7O    basis set group =>   2
Atom   8C    basis set group =>   3
Atom   9H    basis set group =>   1
Atom  10N    basis set group =>   4
Atom  11C    basis set group =>   3
Atom  12H    basis set group =>   1
Atom  13C    basis set group =>   3
Atom  14H    basis set group =>   1
Atom  15C    basis set group =>   3
Atom  16O    basis set group =>   2
Atom  17N    basis set group =>   4
Atom  18H    basis set group =>   1
Atom  19C    basis set group =>   3
Atom  20O    basis set group =>   2
Atom  21C    basis set group =>   3
Atom  22H    basis set group =>   1
Atom  23C    basis set group =>   3
Atom  24H    basis set group =>   1
Atom  25O    basis set group =>   2
Atom  26H    basis set group =>   1
Atom  27O    basis set group =>   2
Atom  28P    basis set group =>   5
Atom  29O    basis set group =>   2
Atom  30O    basis set group =>   2
Atom  31O    basis set group =>   2
Atom  32C    basis set group =>   3
Atom  33H    basis set group =>   1
Atom  34H    basis set group =>   1
Atom  35C    basis set group =>   3
Atom  36H    basis set group =>   1
Atom  37O    basis set group =>   2
Atom  38C    basis set group =>   3
Atom  39H    basis set group =>   1
Atom  40N    basis set group =>   4
Atom  41C    basis set group =>   3
Atom  42H    basis set group =>   1
Atom  43C    basis set group =>   3
Atom  44H    basis set group =>   1
Atom  45C    basis set group =>   3
Atom  46O    basis set group =>   2
Atom  47N    basis set group =>   4
Atom  48H    basis set group =>   1
Atom  49C    basis set group =>   3
Atom  50O    basis set group =>   2
Atom  51C    basis set group =>   3
Atom  52H    basis set group =>   1
Atom  53C    basis set group =>   3
Atom  54H    basis set group =>   1
Atom  55O    basis set group =>   2
Atom  56H    basis set group =>   1
Atom  57O    basis set group =>   2
Atom  58H    basis set group =>   1


           ************************************************************
           *        Program running with 4 parallel MPI-processes     *
           *              working on a common directory               *
           ************************************************************
------------------------------------------------------------------------------
                           ORCA GTO INTEGRAL CALCULATION
                           -- RI-GTO INTEGRALS CHOSEN --
------------------------------------------------------------------------------
------------------------------------------------------------------------------
                   ___                                                        
                  /   \      - P O W E R E D   B Y -                         
                 /     \                                                     
                 |  |  |   _    _      __       _____    __    __             
                 |  |  |  | |  | |    /  \     |  _  \  |  |  /  |          
                  \  \/   | |  | |   /    \    | | | |  |  | /  /          
                 / \  \   | |__| |  /  /\  \   | |_| |  |  |/  /          
                |  |  |   |  __  | /  /__\  \  |    /   |      \           
                |  |  |   | |  | | |   __   |  |    \   |  |\   \          
                \     /   | |  | | |  |  |  |  | |\  \  |  | \   \       
                 \___/    |_|  |_| |__|  |__|  |_| \__\ |__|  \__/        
                                                                              
                      - O R C A' S   B I G   F R I E N D -                    
                                      &                                       
                       - I N T E G R A L  F E E D E R -                       
                                                                              
 v1 FN, 2020, v2 2021                                                         
------------------------------------------------------------------------------


Reading SHARK input file pbeh-3c.SHARKINP.tmp ... ok
----------------------
SHARK INTEGRAL PACKAGE
----------------------

Number of atoms                             ...     59
Number of basis functions                   ...    602
Number of shells                            ...    304
Maximum angular momentum                    ...      2
Integral batch strategy                     ... SHARK/LIBINT Hybrid
RI-J (if used) integral strategy            ... SPLIT-RIJ (Revised 2003 algorithm where possible)
Printlevel                                  ...      1
Contraction scheme used                     ... SEGMENTED contraction
Coulomb Range Separation                    ... NOT USED
Exchange Range Separation                   ... NOT USED
Finite Nucleus Model                        ... NOT USED
Auxiliary Coulomb fitting basis             ... AVAILABLE
   # of basis functions in Aux-J            ...   2057
   # of shells in Aux-J                     ...    667
   Maximum angular momentum in Aux-J        ...      4
Auxiliary J/K fitting basis                 ... NOT available
Auxiliary Correlation fitting basis         ... NOT available
Auxiliary 'external' fitting basis          ... NOT available
Integral threshold                          ...     2.500000e-11
Primitive cut-off                           ...     2.500000e-12
Primitive pair pre-selection threshold      ...     2.500000e-12

Calculating pre-screening integrals         ... done (  0.1 sec) Dimension = 304
Organizing shell pair data                  ... done (  0.9 sec)
Shell pair information
Total number of shell pairs                 ...     46360
Shell pairs after pre-screening             ...     25902
Total number of primitive shell pairs       ...    165582
Primitive shell pairs kept                  ...     54793
          la=0 lb=0:   8960 shell pairs
          la=1 lb=0:   9191 shell pairs
          la=1 lb=1:   2212 shell pairs
          la=2 lb=0:   3362 shell pairs
          la=2 lb=1:   1832 shell pairs
          la=2 lb=2:    345 shell pairs

Calculating one electron integrals          ... done (  0.1 sec)
Calculating RI/J V-Matrix + Cholesky decomp.... done (  3.0 sec)
Calculating Nuclear repulsion               ... done (  0.2 sec) ENN=   5017.170107976540 Eh

SHARK setup successfully completed in   6.4 seconds

Maximum memory used throughout the entire GTOINT-calculation: 56.4 MB


           ************************************************************
           *        Program running with 4 parallel MPI-processes     *
           *              working on a common directory               *
           ************************************************************
-------------------------------------------------------------------------------
                                 ORCA SCF
-------------------------------------------------------------------------------

------------
SCF SETTINGS
------------
Hamiltonian:
 Density Functional     Method          .... DFT(GTOs)
 Exchange Functional    Exchange        .... PBE
   PBE kappa parameter   XKappa         ....  1.024500
   PBE mue parameter    XMuePBE         ....  0.123457
 Correlation Functional Correlation     .... PBE
   PBE beta parameter  CBetaPBE         ....  0.030000
 LDA part of GGA corr.  LDAOpt          .... PW91-LDA
 Gradients option       PostSCFGGA      .... off
 Hybrid DFT is turned on
   Fraction HF Exchange ScalHFX         ....  0.420000
   Scaling of DF-GGA-X  ScalDFX         ....  0.580000
   Scaling of DF-GGA-C  ScalDFC         ....  1.000000
   Scaling of DF-LDA-C  ScalLDAC        ....  1.000000
   Perturbative correction              ....  0.000000
   Density functional embedding theory  .... OFF
 RI-approximation to the Coulomb term is turned on
   Number of AuxJ basis functions       .... 2057
   RIJ-ON(X) (HFX calculated with O(N)) .... on
   Number of AuxJ basis functions       .... 2057
   RIJ-COSX (HFX calculated with COS-X)).... on


General Settings:
 Integral files         IntName         .... pbeh-3c
 Hartree-Fock type      HFTyp           .... RHF
 Total Charge           Charge          ....   -1
 Multiplicity           Mult            ....    1
 Number of Electrons    NEL             ....  286
 Basis Dimension        Dim             ....  602
 Nuclear Repulsion      ENuc            ....   5017.1701079765 Eh

Convergence Acceleration:
 DIIS                   CNVDIIS         .... on
   Start iteration      DIISMaxIt       ....    12
   Startup error        DIISStart       ....  0.200000
   # of expansion vecs  DIISMaxEq       ....     5
   Bias factor          DIISBfac        ....   1.050
   Max. coefficient     DIISMaxC        ....  10.000
 Trust-Rad. Augm. Hess. CNVTRAH         .... auto
   Auto Start mean grad. ratio tolernc. ....  1.125000
   Auto Start start iteration           ....    20
   Auto Start num. interpolation iter.  ....    10
   Max. Number of Micro iterations      ....    16
   Max. Number of Macro iterations      .... Maxiter - #DIIS iter
   Number of Davidson start vectors     ....     2
   Converg. threshold I  (grad. norm)   ....   1.000e-05
   Converg. threshold II (energy diff.) ....   1.000e-08
   Grad. Scal. Fac. for Micro threshold ....   0.100
   Minimum threshold for Micro iter.    ....   0.010
   NR start threshold (gradient norm)   ....   0.001
   Initial trust radius                 ....   0.400
   Minimum AH scaling param. (alpha)    ....   1.000
   Maximum AH scaling param. (alpha)    .... 1000.000
   Orbital update algorithm             .... Taylor
   White noise on init. David. guess    .... on
   Maximum white noise                  ....   0.010
   Quad. conv. algorithm                .... NR
   COSX micro iterations for RIJONX calc.... off
 SOSCF                  CNVSOSCF        .... on
   Start iteration      SOSCFMaxIt      ....   150
   Startup grad/error   SOSCFStart      ....  0.003300
 Level Shifting         CNVShift        .... on
   Level shift para.    LevelShift      ....    0.2500
   Turn off err/grad.   ShiftErr        ....    0.0010
 Zerner damping         CNVZerner       .... off
 Static damping         CNVDamp         .... on
   Fraction old density DampFac         ....    0.7000
   Max. Damping (<1)    DampMax         ....    0.9800
   Min. Damping (>=0)   DampMin         ....    0.0000
   Turn off err/grad.   DampErr         ....    0.1000
 Fernandez-Rico         CNVRico         .... off

SCF Procedure:
 Maximum # iterations   MaxIter         ....   125
 SCF integral mode      SCFMode         .... Direct
   Integral package                     .... SHARK and LIBINT hybrid scheme
 Reset frequency        DirectResetFreq ....    20
 Integral Threshold     Thresh          ....  2.500e-11 Eh
 Primitive CutOff       TCut            ....  2.500e-12 Eh

Convergence Tolerance:
 Convergence Check Mode ConvCheckMode   .... Total+1el-Energy
 Convergence forced     ConvForced      .... 0
 Energy Change          TolE            ....  1.000e-08 Eh
 1-El. energy change                    ....  1.000e-05 Eh
 Orbital Gradient       TolG            ....  1.000e-05
 Orbital Rotation angle TolX            ....  1.000e-05
 DIIS Error             TolErr          ....  5.000e-07


Diagonalization of the overlap matrix:
Smallest eigenvalue                        ... 1.505e-03
Time for diagonalization                   ...    0.120 sec
Threshold for overlap eigenvalues          ... 1.000e-08
Number of eigenvalues below threshold      ... 0
Time for construction of square roots      ...    0.416 sec
Total time needed                          ...    0.599 sec

--------------------------------
INITIAL GUESS: MINIMAL BASIS EHT
--------------------------------
The minimal basis has 211 functions
EHT matrix was diagonalized
Basis set overlap was calculated now projecting the orbitals
Using GuessMode=FMatrix for the initial guess
C*T matrix was formed
Effective Fockian was calculated
Effective Fockian was diagonalized
Initial density was built
                      ------------------
                      INITIAL GUESS DONE
                      ------------------
-------------------
DFT GRID GENERATION
-------------------

General Integration Accuracy     IntAcc      ... 4.959
Radial Grid Type                 RadialGrid  ... OptM3 with GC (2021)
Angular Grid (max. ang.)         AngularGrid ... 6 (Lebedev-590)
Angular grid pruning method      GridPruning ... 4 (adaptive)
Weight generation scheme         WeightScheme... Becke
Basis function cutoff            BFCut       ... 1.0000e-11
Integration weight cutoff        WCut        ... 1.0000e-14
Angular grids for H and He will be reduced by one unit
Partially contracted basis set               ... off
Rotationally invariant grid construction     ... off

Total number of grid points                  ...   707356
Total number of batches                      ...    11079
Average number of points per batch           ...       63
Average number of grid points per atom       ...    11989
Time for grid setup =   28.988 sec

--------------------
COSX GRID GENERATION
--------------------

GRIDX 1
-------
General Integration Accuracy     IntAcc      ... 4.020
Radial Grid Type                 RadialGrid  ... OptM3 with GC (2021)
Angular Grid (max. ang.)         AngularGrid ... 2 (Lebedev-110)
Angular grid pruning method      GridPruning ... 4 (adaptive)
Weight generation scheme         WeightScheme... Becke
Basis function cutoff            BFCut       ... 1.0000e-11
Integration weight cutoff        WCut        ... 1.0000e-14
Angular grids for H and He will be reduced by one unit
Partially contracted basis set               ... on
Rotationally invariant grid construction     ... off

Total number of grid points                  ...    80183
Total number of batches                      ...     1287
Average number of points per batch           ...       62
Average number of grid points per atom       ...     1359
UseSFitting                                  ... on

GRIDX 2
-------
General Integration Accuracy     IntAcc      ... 4.338
Radial Grid Type                 RadialGrid  ... OptM3 with GC (2021)
Angular Grid (max. ang.)         AngularGrid ... 3 (Lebedev-194)
Angular grid pruning method      GridPruning ... 4 (adaptive)
Weight generation scheme         WeightScheme... Becke
Basis function cutoff            BFCut       ... 1.0000e-11
Integration weight cutoff        WCut        ... 1.0000e-14
Angular grids for H and He will be reduced by one unit
Partially contracted basis set               ... on
Rotationally invariant grid construction     ... off

Total number of grid points                  ...   175511
Total number of batches                      ...     2772
Average number of points per batch           ...       63
Average number of grid points per atom       ...     2975
UseSFitting                                  ... on

GRIDX 3
-------
General Integration Accuracy     IntAcc      ... 4.871
Radial Grid Type                 RadialGrid  ... OptM3 with GC (2021)
Angular Grid (max. ang.)         AngularGrid ... 4 (Lebedev-302)
Angular grid pruning method      GridPruning ... 4 (adaptive)
Weight generation scheme         WeightScheme... Becke
Basis function cutoff            BFCut       ... 1.0000e-11
Integration weight cutoff        WCut        ... 1.0000e-14
Angular grids for H and He will be reduced by one unit
Partially contracted basis set               ... on
Rotationally invariant grid construction     ... off

Total number of grid points                  ...   322172
Total number of batches                      ...     5068
Average number of points per batch           ...       63
Average number of grid points per atom       ...     5461
UseSFitting                                  ... on

Time for X-Grid setup             =   21.215 sec

--------------
SCF ITERATIONS
--------------
ITER       Energy         Delta-E        Max-DP      RMS-DP      [F,P]     Damp
               ***  Starting incremental Fock matrix formation  ***
  0  -2300.4846895413   0.000000000000 0.47386638  0.00463950  0.7215167 0.7000
  1  -2303.5736430505  -3.088953509166 0.16602616  0.00241085  0.3558050 0.7000
  2  -2304.9906999020  -1.417056851521 0.09643168  0.00138147  0.2511841 0.7000
                               ***Turning on DIIS***
  3  -2305.9988454602  -1.008145558214 0.09440260  0.00097126  0.1735358 0.7000
  4  -2306.7261928165  -0.727347356336 0.06096234  0.00068994  0.1183120 0.7000
  5  -2307.2381186829  -0.511925866390 0.13569253  0.00165840  0.0818961 0.0000
  6  -2308.4500819026  -1.211963219723 0.00674735  0.00008904  0.0048899 0.0000
                      *** Initiating the SOSCF procedure ***
                           *** Shutting down DIIS ***
                      *** Re-Reading the Fockian *** 
                      *** Removing any level shift *** 
ITER      Energy       Delta-E        Grad      Rot      Max-DP    RMS-DP
  7  -2308.45074778  -0.0006658784  0.000853  0.000853  0.003182  0.000042
               *** Restarting incremental Fock matrix formation ***
  8  -2308.45090994  -0.0001621588  0.000908  0.002811  0.002173  0.000030
  9  -2308.45094947  -0.0000395270  0.000342  0.001060  0.003195  0.000031
 10  -2308.45095380  -0.0000043335  0.000229  0.000570  0.001495  0.000015
 11  -2308.45096258  -0.0000087747  0.000028  0.000053  0.000141  0.000002
 12  -2308.45096260  -0.0000000201  0.000041  0.000040  0.000101  0.000001
 13  -2308.45096270  -0.0000001048  0.000005  0.000012  0.000024  0.000000
 14  -2308.45096272  -0.0000000204  0.000004  0.000005  0.000012  0.000000
                  ***Gradient check signals convergence***
              ***Rediagonalizing the Fockian in SOSCF/NRSCF***

               *****************************************************
               *                     SUCCESS                       *
               *           SCF CONVERGED AFTER  15 CYCLES          *
               *****************************************************

Old exchange energy                            =   -111.712519785 Eh
New exchange energy                            =   -111.712537541 Eh
Exchange energy change after final integration =     -0.000017756 Eh
Total energy after final integration           =  -2308.450980471 Eh
Final COS-X integration done in                =   102.991 sec

----------------
TOTAL SCF ENERGY
----------------

Total Energy       :        -2308.45098047 Eh          -62816.14469 eV

Components:
Nuclear Repulsion  :         5017.17010798 Eh          136524.13939 eV
Electronic Energy  :        -7325.62108845 Eh         -199340.28408 eV
One Electron Energy:       -13195.13492999 Eh         -359057.87559 eV
Two Electron Energy:         5869.51384155 Eh          159717.59151 eV
Max COSX asymmetry :            0.00000340 Eh               0.00009 eV

Virial components:
Potential Energy   :        -4601.43690831 Eh         -125211.46390 eV
Kinetic Energy     :         2292.98592784 Eh           62395.31921 eV
Virial Ratio       :            2.00674450


DFT components:
N(Alpha)           :      142.999971057370 electrons
N(Beta)            :      142.999971057370 electrons
N(Total)           :      285.999942114741 electrons
E(X)               :     -148.799871512327 Eh       
E(C)               :      -13.017871016315 Eh       
E(XC)              :     -161.817742528642 Eh       
DFET-embed. en.    :        0.000000000000 Eh       

---------------
SCF CONVERGENCE
---------------

  Last Energy change         ...    6.1832e-09  Tolerance :   1.0000e-08
  Last MAX-Density change    ...    4.3160e-15  Tolerance :   1.0000e-07
  Last RMS-Density change    ...    3.6029e-17  Tolerance :   5.0000e-09
  Last Orbital Gradient      ...    5.2679e-07  Tolerance :   1.0000e-05
  Last Orbital Rotation      ...    1.4807e-06  Tolerance :   1.0000e-05

             **** THE GBW FILE WAS UPDATED (pbeh-3c.gbw) ****
             **** DENSITY pbeh-3c.scfp WAS UPDATED ****
             **** ENERGY FILE WAS UPDATED (pbeh-3c.en.tmp) ****
             **** THE GBW FILE WAS UPDATED (pbeh-3c.gbw) ****
             **** DENSITY pbeh-3c.scfp WAS UPDATED ****
----------------
ORBITAL ENERGIES
----------------

  NO   OCC          E(Eh)            E(eV) 
   0   2.0000     -77.719247     -2114.8482 
   1   2.0000     -19.453278      -529.3506 
   2   2.0000     -19.439590      -528.9781 
   3   2.0000     -19.437146      -528.9116 
   4   2.0000     -19.427504      -528.6493 
   5   2.0000     -19.424717      -528.5734 
   6   2.0000     -19.403498      -527.9960 
   7   2.0000     -19.398215      -527.8523 
   8   2.0000     -19.396187      -527.7971 
   9   2.0000     -19.394666      -527.7557 
  10   2.0000     -19.389497      -527.6150 
  11   2.0000     -19.379206      -527.3350 
  12   2.0000     -19.375577      -527.2363 
  13   2.0000     -19.277337      -524.5630 
  14   2.0000     -19.274370      -524.4823 
  15   2.0000     -14.625756      -397.9871 
  16   2.0000     -14.622967      -397.9112 
  17   2.0000     -14.609956      -397.5571 
  18   2.0000     -14.604578      -397.4108 
  19   2.0000     -10.518532      -286.2238 
  20   2.0000     -10.513361      -286.0831 
  21   2.0000     -10.477114      -285.0968 
  22   2.0000     -10.474563      -285.0274 
  23   2.0000     -10.466064      -284.7961 
  24   2.0000     -10.459265      -284.6111 
  25   2.0000     -10.434828      -283.9461 
  26   2.0000     -10.430108      -283.8177 
  27   2.0000     -10.426060      -283.7075 
  28   2.0000     -10.424463      -283.6641 
  29   2.0000     -10.424432      -283.6632 
  30   2.0000     -10.418846      -283.5112 
  31   2.0000     -10.418434      -283.5000 
  32   2.0000     -10.404864      -283.1308 
  33   2.0000     -10.403361      -283.0898 
  34   2.0000     -10.401211      -283.0313 
  35   2.0000     -10.363873      -282.0153 
  36   2.0000     -10.361917      -281.9621 
  37   2.0000      -6.763796      -184.0522 
  38   2.0000      -4.858975      -132.2194 
  39   2.0000      -4.857550      -132.1806 
  40   2.0000      -4.855224      -132.1173 
  41   2.0000      -1.110854       -30.2279 
  42   2.0000      -1.104628       -30.0585 
  43   2.0000      -1.096382       -29.8341 
  44   2.0000      -1.086918       -29.5765 
  45   2.0000      -1.078825       -29.3563 
  46   2.0000      -1.055882       -28.7320 
  47   2.0000      -1.054689       -28.6995 
  48   2.0000      -1.053832       -28.6762 
  49   2.0000      -1.050074       -28.5740 
  50   2.0000      -1.049679       -28.5632 
  51   2.0000      -1.032801       -28.1039 
  52   2.0000      -1.008231       -27.4354 
  53   2.0000      -0.992257       -27.0007 
  54   2.0000      -0.988178       -26.8897 
  55   2.0000      -0.942799       -25.6549 
  56   2.0000      -0.937263       -25.5042 
  57   2.0000      -0.908939       -24.7335 
  58   2.0000      -0.866686       -23.5837 
  59   2.0000      -0.806124       -21.9357 
  60   2.0000      -0.804854       -21.9012 
  61   2.0000      -0.796737       -21.6803 
  62   2.0000      -0.784328       -21.3427 
  63   2.0000      -0.767813       -20.8933 
  64   2.0000      -0.760223       -20.6867 
  65   2.0000      -0.690165       -18.7803 
  66   2.0000      -0.688143       -18.7253 
  67   2.0000      -0.680873       -18.5275 
  68   2.0000      -0.679283       -18.4842 
  69   2.0000      -0.642585       -17.4856 
  70   2.0000      -0.634951       -17.2779 
  71   2.0000      -0.611408       -16.6373 
  72   2.0000      -0.597950       -16.2710 
  73   2.0000      -0.587535       -15.9876 
  74   2.0000      -0.580214       -15.7884 
  75   2.0000      -0.558214       -15.1898 
  76   2.0000      -0.550773       -14.9873 
  77   2.0000      -0.543910       -14.8006 
  78   2.0000      -0.538303       -14.6480 
  79   2.0000      -0.530425       -14.4336 
  80   2.0000      -0.526208       -14.3188 
  81   2.0000      -0.512126       -13.9357 
  82   2.0000      -0.504597       -13.7308 
  83   2.0000      -0.498512       -13.5652 
  84   2.0000      -0.495312       -13.4781 
  85   2.0000      -0.490292       -13.3415 
  86   2.0000      -0.475269       -12.9327 
  87   2.0000      -0.471342       -12.8259 
  88   2.0000      -0.466862       -12.7040 
  89   2.0000      -0.461073       -12.5464 
  90   2.0000      -0.456420       -12.4198 
  91   2.0000      -0.456187       -12.4135 
  92   2.0000      -0.446758       -12.1569 
  93   2.0000      -0.441525       -12.0145 
  94   2.0000      -0.431894       -11.7524 
  95   2.0000      -0.429750       -11.6941 
  96   2.0000      -0.423133       -11.5140 
  97   2.0000      -0.420844       -11.4518 
  98   2.0000      -0.412846       -11.2341 
  99   2.0000      -0.407543       -11.0898 
 100   2.0000      -0.402627       -10.9560 
 101   2.0000      -0.400413       -10.8958 
 102   2.0000      -0.392648       -10.6845 
 103   2.0000      -0.386806       -10.5255 
 104   2.0000      -0.386344       -10.5129 
 105   2.0000      -0.385014       -10.4768 
 106   2.0000      -0.379800       -10.3349 
 107   2.0000      -0.378095       -10.2885 
 108   2.0000      -0.376070       -10.2334 
 109   2.0000      -0.365316        -9.9407 
 110   2.0000      -0.361088        -9.8257 
 111   2.0000      -0.357754        -9.7350 
 112   2.0000      -0.344460        -9.3732 
 113   2.0000      -0.343130        -9.3370 
 114   2.0000      -0.337321        -9.1790 
 115   2.0000      -0.333239        -9.0679 
 116   2.0000      -0.331048        -9.0083 
 117   2.0000      -0.325219        -8.8497 
 118   2.0000      -0.323862        -8.8127 
 119   2.0000      -0.314592        -8.5605 
 120   2.0000      -0.299725        -8.1559 
 121   2.0000      -0.291309        -7.9269 
 122   2.0000      -0.276582        -7.5262 
 123   2.0000      -0.273661        -7.4467 
 124   2.0000      -0.273105        -7.4316 
 125   2.0000      -0.263821        -7.1789 
 126   2.0000      -0.261295        -7.1102 
 127   2.0000      -0.257243        -6.9999 
 128   2.0000      -0.256192        -6.9713 
 129   2.0000      -0.253398        -6.8953 
 130   2.0000      -0.250221        -6.8088 
 131   2.0000      -0.249114        -6.7787 
 132   2.0000      -0.247506        -6.7350 
 133   2.0000      -0.244182        -6.6445 
 134   2.0000      -0.232506        -6.3268 
 135   2.0000      -0.230214        -6.2645 
 136   2.0000      -0.227721        -6.1966 
 137   2.0000      -0.204835        -5.5739 
 138   2.0000      -0.193449        -5.2640 
 139   2.0000      -0.192665        -5.2427 
 140   2.0000      -0.190119        -5.1734 
 141   2.0000      -0.170168        -4.6305 
 142   2.0000      -0.157417        -4.2835 
 143   0.0000       0.075642         2.0583 
 144   0.0000       0.078714         2.1419 
 145   0.0000       0.125216         3.4073 
 146   0.0000       0.131215         3.5705 
 147   0.0000       0.158461         4.3119 
 148   0.0000       0.185538         5.0487 
 149   0.0000       0.192822         5.2469 
 150   0.0000       0.209024         5.6878 
 151   0.0000       0.213063         5.7977 
 152   0.0000       0.216457         5.8901 
 153   0.0000       0.222659         6.0589 
 154   0.0000       0.230331         6.2676 
 155   0.0000       0.235323         6.4035 
 156   0.0000       0.241524         6.5722 
 157   0.0000       0.242733         6.6051 
 158   0.0000       0.248491         6.7618 
 159   0.0000       0.254241         6.9182 
 160   0.0000       0.256851         6.9893 
 161   0.0000       0.261568         7.1176 
 162   0.0000       0.266419         7.2496 
 163   0.0000       0.269121         7.3232 
 164   0.0000       0.277372         7.5477 
 165   0.0000       0.278702         7.5839 
 166   0.0000       0.284315         7.7366 
 167   0.0000       0.288652         7.8546 
 168   0.0000       0.291634         7.9358 
 169   0.0000       0.294165         8.0046 
 170   0.0000       0.300893         8.1877 
 171   0.0000       0.306702         8.3458 
 172   0.0000       0.308027         8.3819 
 173   0.0000       0.311174         8.4675 
 174   0.0000       0.314238         8.5509 
 175   0.0000       0.317642         8.6435 
 176   0.0000       0.319634         8.6977 
 177   0.0000       0.330829         9.0023 
 178   0.0000       0.333128         9.0649 
 179   0.0000       0.335437         9.1277 
 180   0.0000       0.342270         9.3137 
 181   0.0000       0.346876         9.4390 
 182   0.0000       0.349837         9.5195 
 183   0.0000       0.351690         9.5700 
 184   0.0000       0.357445         9.7266 
 185   0.0000       0.368660        10.0318 
 186   0.0000       0.369828        10.0635 
 187   0.0000       0.372083        10.1249 
 188   0.0000       0.377355        10.2684 
 189   0.0000       0.380828        10.3628 
 190   0.0000       0.382778        10.4159 
 191   0.0000       0.387437        10.5427 
 192   0.0000       0.389266        10.5925 
 193   0.0000       0.398975        10.8567 
 194   0.0000       0.405294        11.0286 
 195   0.0000       0.408762        11.1230 
 196   0.0000       0.414822        11.2879 
 197   0.0000       0.421494        11.4694 
 198   0.0000       0.426243        11.5987 
 199   0.0000       0.435508        11.8508 
 200   0.0000       0.449470        12.2307 
 201   0.0000       0.457569        12.4511 
 202   0.0000       0.463547        12.6138 
 203   0.0000       0.471579        12.8323 
 204   0.0000       0.477826        13.0023 
 205   0.0000       0.482330        13.1249 
 206   0.0000       0.505342        13.7511 
 207   0.0000       0.508047        13.8247 
 208   0.0000       0.524289        14.2666 
 209   0.0000       0.536759        14.6059 
 210   0.0000       0.545833        14.8529 
 211   0.0000       0.575351        15.6561 
 212   0.0000       0.576319        15.6824 
 213   0.0000       0.583470        15.8770 
 214   0.0000       0.599806        16.3216 
 215   0.0000       0.604968        16.4620 
 216   0.0000       0.611589        16.6422 
 217   0.0000       0.615505        16.7487 
 218   0.0000       0.619798        16.8656 
 219   0.0000       0.623276        16.9602 
 220   0.0000       0.628572        17.1043 
 221   0.0000       0.631559        17.1856 
 222   0.0000       0.641272        17.4499 
 223   0.0000       0.644776        17.5453 
 224   0.0000       0.651958        17.7407 
 225   0.0000       0.655239        17.8300 
 226   0.0000       0.658295        17.9131 
 227   0.0000       0.664338        18.0775 
 228   0.0000       0.670216        18.2375 
 229   0.0000       0.672253        18.2929 
 230   0.0000       0.680094        18.5063 
 231   0.0000       0.682007        18.5583 
 232   0.0000       0.686301        18.6752 
 233   0.0000       0.691927        18.8283 
 234   0.0000       0.697151        18.9704 
 235   0.0000       0.699685        19.0394 
 236   0.0000       0.702452        19.1147 
 237   0.0000       0.709191        19.2981 
 238   0.0000       0.717299        19.5187 
 239   0.0000       0.726753        19.7760 
 240   0.0000       0.733630        19.9631 
 241   0.0000       0.743538        20.2327 
 242   0.0000       0.748896        20.3785 
 243   0.0000       0.758553        20.6413 
 244   0.0000       0.760120        20.6839 
 245   0.0000       0.764313        20.7980 
 246   0.0000       0.769396        20.9363 
 247   0.0000       0.774067        21.0634 
 248   0.0000       0.780061        21.2265 
 249   0.0000       0.787711        21.4347 
 250   0.0000       0.789291        21.4777 
 251   0.0000       0.805465        21.9178 
 252   0.0000       0.807038        21.9606 
 253   0.0000       0.809306        22.0223 
 254   0.0000       0.816810        22.2265 
 255   0.0000       0.822081        22.3700 
 256   0.0000       0.824771        22.4432 
 257   0.0000       0.834566        22.7097 
 258   0.0000       0.836788        22.7702 
 259   0.0000       0.843266        22.9464 
 260   0.0000       0.854337        23.2477 
 261   0.0000       0.860250        23.4086 
 262   0.0000       0.869528        23.6611 
 263   0.0000       0.871270        23.7085 
 264   0.0000       0.878358        23.9013 
 265   0.0000       0.899617        24.4798 
 266   0.0000       0.908615        24.7247 
 267   0.0000       0.916580        24.9414 
 268   0.0000       0.924351        25.1529 
 269   0.0000       0.946430        25.7537 
 270   0.0000       0.962247        26.1841 
 271   0.0000       0.967663        26.3314 
 272   0.0000       0.980197        26.6725 
 273   0.0000       0.989159        26.9164 
 274   0.0000       0.990472        26.9521 
 275   0.0000       0.993468        27.0336 
 276   0.0000       0.996071        27.1045 
 277   0.0000       1.007309        27.4103 
 278   0.0000       1.015380        27.6299 
 279   0.0000       1.016492        27.6602 
 280   0.0000       1.023117        27.8404 
 281   0.0000       1.025642        27.9091 
 282   0.0000       1.032599        28.0985 
 283   0.0000       1.045477        28.4489 
 284   0.0000       1.051735        28.6192 
 285   0.0000       1.052786        28.6478 
 286   0.0000       1.054050        28.6822 
 287   0.0000       1.058968        28.8160 
 288   0.0000       1.068821        29.0841 
 289   0.0000       1.071196        29.1487 
 290   0.0000       1.076059        29.2810 
 291   0.0000       1.081146        29.4195 
 292   0.0000       1.084616        29.5139 
 293   0.0000       1.087982        29.6055 
 294   0.0000       1.090834        29.6831 
 295   0.0000       1.095726        29.8162 
 296   0.0000       1.097518        29.8650 
 297   0.0000       1.098322        29.8869 
 298   0.0000       1.101431        29.9715 
 299   0.0000       1.105341        30.0779 
 300   0.0000       1.113643        30.3038 
 301   0.0000       1.119061        30.4512 
 302   0.0000       1.125150        30.6169 
 303   0.0000       1.132609        30.8198 
 304   0.0000       1.136817        30.9344 
 305   0.0000       1.139975        31.0203 
 306   0.0000       1.152864        31.3710 
 307   0.0000       1.158832        31.5334 
 308   0.0000       1.170016        31.8378 
 309   0.0000       1.177227        32.0340 
 310   0.0000       1.184172        32.2230 
 311   0.0000       1.191547        32.4237 
 312   0.0000       1.201841        32.7038 
 313   0.0000       1.210415        32.9371 
 314   0.0000       1.215233        33.0682 
 315   0.0000       1.219932        33.1960 
 316   0.0000       1.227476        33.4013 
 317   0.0000       1.239289        33.7228 
 318   0.0000       1.242161        33.8009 
 319   0.0000       1.246510        33.9193 
 320   0.0000       1.246778        33.9265 
 321   0.0000       1.254872        34.1468 
 322   0.0000       1.259054        34.2606 
 323   0.0000       1.268569        34.5195 
 324   0.0000       1.271770        34.6066 
 325   0.0000       1.275411        34.7057 
 326   0.0000       1.280355        34.8402 
 327   0.0000       1.283748        34.9326 
 328   0.0000       1.297302        35.3014 
 329   0.0000       1.304501        35.4973 
 330   0.0000       1.306878        35.5620 
 331   0.0000       1.313253        35.7354 
 332   0.0000       1.314872        35.7795 
 333   0.0000       1.322211        35.9792 
 334   0.0000       1.326736        36.1023 
 335   0.0000       1.333406        36.2838 
 336   0.0000       1.337555        36.3967 
 337   0.0000       1.345536        36.6139 
 338   0.0000       1.348334        36.6900 
 339   0.0000       1.361730        37.0546 
 340   0.0000       1.365901        37.1681 
 341   0.0000       1.373917        37.3862 
 342   0.0000       1.377221        37.4761 
 343   0.0000       1.388448        37.7816 
 344   0.0000       1.397160        38.0187 
 345   0.0000       1.405079        38.2342 
 346   0.0000       1.414710        38.4962 
 347   0.0000       1.430398        38.9231 
 348   0.0000       1.434308        39.0295 
 349   0.0000       1.442784        39.2601 
 350   0.0000       1.447956        39.4009 
 351   0.0000       1.459818        39.7237 
 352   0.0000       1.472979        40.0818 
 353   0.0000       1.476333        40.1731 
 354   0.0000       1.484387        40.3922 
 355   0.0000       1.493787        40.6480 
 356   0.0000       1.504292        40.9339 
 357   0.0000       1.510631        41.1064 
 358   0.0000       1.516824        41.2749 
 359   0.0000       1.523167        41.4475 
 360   0.0000       1.525643        41.5148 
 361   0.0000       1.534143        41.7461 
 362   0.0000       1.535089        41.7719 
 363   0.0000       1.540717        41.9250 
 364   0.0000       1.554398        42.2973 
 365   0.0000       1.556717        42.3604 
 366   0.0000       1.564878        42.5825 
 367   0.0000       1.570139        42.7256 
 368   0.0000       1.587471        43.1973 
 369   0.0000       1.591518        43.3074 
 370   0.0000       1.596016        43.4298 
 371   0.0000       1.606209        43.7072 
 372   0.0000       1.609032        43.7840 
 373   0.0000       1.614613        43.9359 
 374   0.0000       1.627995        44.3000 
 375   0.0000       1.634483        44.4765 
 376   0.0000       1.642043        44.6823 
 377   0.0000       1.656297        45.0701 
 378   0.0000       1.678955        45.6867 
 379   0.0000       1.689126        45.9634 
 380   0.0000       1.698888        46.2291 
 381   0.0000       1.702911        46.3386 
 382   0.0000       1.711813        46.5808 
 383   0.0000       1.723235        46.8916 
 384   0.0000       1.741502        47.3887 
 385   0.0000       1.749529        47.6071 
 386   0.0000       1.766757        48.0759 
 387   0.0000       1.769008        48.1372 
 388   0.0000       1.776806        48.3493 
 389   0.0000       1.791324        48.7444 
 390   0.0000       1.799581        48.9691 
 391   0.0000       1.803639        49.0795 
 392   0.0000       1.820041        49.5258 
 393   0.0000       1.833465        49.8911 
 394   0.0000       1.851301        50.3765 
 395   0.0000       1.857367        50.5415 
 396   0.0000       1.861356        50.6501 
 397   0.0000       1.865351        50.7588 
 398   0.0000       1.868420        50.8423 
 399   0.0000       1.885851        51.3166 
 400   0.0000       1.896378        51.6031 
 401   0.0000       1.903147        51.7873 
 402   0.0000       1.908557        51.9345 
 403   0.0000       1.920903        52.2704 
 404   0.0000       1.927158        52.4406 
 405   0.0000       1.933774        52.6207 
 406   0.0000       1.943164        52.8762 
 407   0.0000       1.945515        52.9402 
 408   0.0000       1.949183        53.0400 
 409   0.0000       1.954511        53.1850 
 410   0.0000       1.959605        53.3236 
 411   0.0000       1.966515        53.5116 
 412   0.0000       1.971011        53.6339 
 413   0.0000       1.971583        53.6495 
 414   0.0000       1.979276        53.8588 
 415   0.0000       1.982250        53.9398 
 416   0.0000       1.984697        54.0064 
 417   0.0000       1.986389        54.0524 
 418   0.0000       1.999134        54.3992 
 419   0.0000       1.999289        54.4034 
 420   0.0000       2.013384        54.7870 
 421   0.0000       2.021330        55.0032 
 422   0.0000       2.028143        55.1886 
 423   0.0000       2.034194        55.3532 
 424   0.0000       2.037522        55.4438 
 425   0.0000       2.047816        55.7239 
 426   0.0000       2.050327        55.7922 
 427   0.0000       2.055739        55.9395 
 428   0.0000       2.057882        55.9978 
 429   0.0000       2.061022        56.0833 
 430   0.0000       2.065489        56.2048 
 431   0.0000       2.073908        56.4339 
 432   0.0000       2.077016        56.5185 
 433   0.0000       2.083930        56.7066 
 434   0.0000       2.086443        56.7750 
 435   0.0000       2.094860        57.0040 
 436   0.0000       2.100413        57.1551 
 437   0.0000       2.108044        57.3628 
 438   0.0000       2.110600        57.4323 
 439   0.0000       2.115839        57.5749 
 440   0.0000       2.119084        57.6632 
 441   0.0000       2.126661        57.8694 
 442   0.0000       2.133812        58.0640 
 443   0.0000       2.139121        58.2084 
 444   0.0000       2.140279        58.2400 
 445   0.0000       2.145197        58.3738 
 446   0.0000       2.154082        58.6156 
 447   0.0000       2.157353        58.7046 
 448   0.0000       2.164401        58.8964 
 449   0.0000       2.172394        59.1138 
 450   0.0000       2.175761        59.2055 
 451   0.0000       2.178404        59.2774 
 452   0.0000       2.191360        59.6299 
 453   0.0000       2.194032        59.7026 
 454   0.0000       2.198810        59.8327 
 455   0.0000       2.203726        59.9664 
 456   0.0000       2.213257        60.2258 
 457   0.0000       2.224286        60.5259 
 458   0.0000       2.227993        60.6268 
 459   0.0000       2.233453        60.7753 
 460   0.0000       2.236253        60.8515 
 461   0.0000       2.245250        61.0964 
 462   0.0000       2.264174        61.6113 
 463   0.0000       2.271381        61.8074 
 464   0.0000       2.277454        61.9727 
 465   0.0000       2.288449        62.2719 
 466   0.0000       2.302817        62.6628 
 467   0.0000       2.307242        62.7832 
 468   0.0000       2.315240        63.0009 
 469   0.0000       2.321048        63.1589 
 470   0.0000       2.323506        63.2258 
 471   0.0000       2.332330        63.4659 
 472   0.0000       2.336956        63.5918 
 473   0.0000       2.348521        63.9065 
 474   0.0000       2.351124        63.9773 
 475   0.0000       2.355543        64.0976 
 476   0.0000       2.358207        64.1701 
 477   0.0000       2.368755        64.4571 
 478   0.0000       2.386722        64.9460 
 479   0.0000       2.406999        65.4978 
 480   0.0000       2.412124        65.6372 
 481   0.0000       2.419454        65.8367 
 482   0.0000       2.428464        66.0819 
 483   0.0000       2.438406        66.3524 
 484   0.0000       2.449200        66.6461 
 485   0.0000       2.451357        66.7048 
 486   0.0000       2.457426        66.8700 
 487   0.0000       2.460915        66.9649 
 488   0.0000       2.469424        67.1964 
 489   0.0000       2.474339        67.3302 
 490   0.0000       2.485304        67.6286 
 491   0.0000       2.499444        68.0133 
 492   0.0000       2.509442        68.2854 
 493   0.0000       2.515589        68.4527 
 494   0.0000       2.521378        68.6102 
 495   0.0000       2.525672        68.7270 
 496   0.0000       2.535811        69.0029 
 497   0.0000       2.539486        69.1029 
 498   0.0000       2.551605        69.4327 
 499   0.0000       2.556471        69.5651 
 500   0.0000       2.562039        69.7166 
 501   0.0000       2.587459        70.4083 
 502   0.0000       2.597218        70.6739 
 503   0.0000       2.606325        70.9217 
 504   0.0000       2.611216        71.0548 
 505   0.0000       2.625269        71.4372 
 506   0.0000       2.640026        71.8388 
 507   0.0000       2.657321        72.3094 
 508   0.0000       2.661561        72.4248 
 509   0.0000       2.669312        72.6357 
 510   0.0000       2.677412        72.8561 
 511   0.0000       2.682227        72.9871 
 512   0.0000       2.699196        73.4489 
 513   0.0000       2.706254        73.6409 
 514   0.0000       2.722663        74.0874 
 515   0.0000       2.734292        74.4039 
 516   0.0000       2.738723        74.5244 
 517   0.0000       2.749104        74.8069 
 518   0.0000       2.758065        75.0508 
 519   0.0000       2.761515        75.1446 
 520   0.0000       2.768143        75.3250 
 521   0.0000       2.775854        75.5348 
 522   0.0000       2.785822        75.8061 
 523   0.0000       2.796431        76.0948 
 524   0.0000       2.799032        76.1655 
 525   0.0000       2.818872        76.7054 
 526   0.0000       2.825681        76.8907 
 527   0.0000       2.838867        77.2495 
 528   0.0000       2.843855        77.3852 
 529   0.0000       2.858206        77.7757 
 530   0.0000       2.860505        77.8383 
 531   0.0000       2.881076        78.3981 
 532   0.0000       2.888290        78.5944 
 533   0.0000       2.895414        78.7882 
 534   0.0000       2.911141        79.2162 
 535   0.0000       2.912735        79.2596 
 536   0.0000       2.925836        79.6160 
 537   0.0000       2.932523        79.7980 
 538   0.0000       2.941018        80.0292 
 539   0.0000       2.961986        80.5997 
 540   0.0000       2.975064        80.9556 
 541   0.0000       2.983587        81.1875 
 542   0.0000       2.989590        81.3509 
 543   0.0000       2.999728        81.6268 
 544   0.0000       3.011405        81.9445 
 545   0.0000       3.020569        82.1939 
 546   0.0000       3.024659        82.3052 
 547   0.0000       3.032821        82.5272 
 548   0.0000       3.038121        82.6715 
 549   0.0000       3.071571        83.5817 
 550   0.0000       3.077333        83.7385 
 551   0.0000       3.096686        84.2651 
 552   0.0000       3.101682        84.4011 
 553   0.0000       3.103175        84.4417 
 554   0.0000       3.128468        85.1299 
 555   0.0000       3.132765        85.2469 
 556   0.0000       3.149870        85.7123 
 557   0.0000       3.171136        86.2910 
 558   0.0000       3.186479        86.7085 
 559   0.0000       3.196706        86.9868 
 560   0.0000       3.201156        87.1079 
 561   0.0000       3.238371        88.1206 
 562   0.0000       3.411438        92.8299 
 563   0.0000       3.414290        92.9076 
 564   0.0000       3.594125        97.8011 
 565   0.0000       3.596739        97.8723 
 566   0.0000      13.551740       368.7616 
 567   0.0000      13.592873       369.8809 
 568   0.0000      13.684642       372.3780 
 569   0.0000      13.687081       372.4444 
 570   0.0000      13.901361       378.2753 
 571   0.0000      13.911015       378.5379 
 572   0.0000      14.028353       381.7309 
 573   0.0000      14.037159       381.9705 
 574   0.0000      14.042489       382.1156 
 575   0.0000      14.043566       382.1449 
 576   0.0000      14.108802       383.9200 
 577   0.0000      14.129376       384.4799 
 578   0.0000      14.156769       385.2253 
 579   0.0000      14.188482       386.0882 
 580   0.0000      14.243558       387.5869 
 581   0.0000      14.282053       388.6344 
 582   0.0000      14.330039       389.9402 
 583   0.0000      14.339834       390.2067 
 584   0.0000      19.395515       527.7788 
 585   0.0000      19.423831       528.5493 
 586   0.0000      19.517033       531.0855 
 587   0.0000      19.526006       531.3296 
 588   0.0000      25.584485       696.1892 
 589   0.0000      25.680240       698.7949 
 590   0.0000      25.705182       699.4736 
 591   0.0000      25.736713       700.3316 
 592   0.0000      25.769142       701.2140 
 593   0.0000      25.795389       701.9282 
 594   0.0000      25.837074       703.0625 
 595   0.0000      25.846995       703.3325 
 596   0.0000      25.867371       703.8870 
 597   0.0000      25.902242       704.8358 
 598   0.0000      25.917135       705.2411 
 599   0.0000      25.923628       705.4178 
 600   0.0000      25.933296       705.6808 
 601   0.0000      25.970505       706.6934 

                    ********************************
                    * MULLIKEN POPULATION ANALYSIS *
                    ********************************

-----------------------
MULLIKEN ATOMIC CHARGES
-----------------------
   0 H :    0.420750
   1 O :   -0.623654
   2 C :   -0.177679
   3 H :    0.191080
   4 H :    0.224036
   5 C :    0.044688
   6 H :    0.225290
   7 O :   -0.504746
   8 C :    0.200462
   9 H :    0.270568
  10 N :   -0.574094
  11 C :    0.076474
  12 H :    0.321936
  13 C :   -0.474717
  14 H :    0.240000
  15 C :    0.568659
  16 O :   -0.423093
  17 N :   -0.738656
  18 H :    0.387474
  19 C :    0.720062
  20 O :   -0.449872
  21 C :   -0.070678
  22 H :    0.283332
  23 C :   -0.029737
  24 H :    0.275170
  25 O :   -0.653417
  26 H :    0.433143
  27 O :   -0.631649
  28 P :    1.386622
  29 O :   -0.728563
  30 O :   -0.729372
  31 O :   -0.627550
  32 C :   -0.163333
  33 H :    0.201763
  34 H :    0.236560
  35 C :    0.031397
  36 H :    0.224618
  37 O :   -0.479397
  38 C :    0.195388
  39 H :    0.287170
  40 N :   -0.572950
  41 C :    0.042915
  42 H :    0.359526
  43 C :   -0.499038
  44 H :    0.287608
  45 C :    0.556633
  46 O :   -0.415401
  47 N :   -0.736136
  48 H :    0.384645
  49 C :    0.717716
  50 O :   -0.455311
  51 C :   -0.071339
  52 H :    0.260641
  53 C :   -0.021333
  54 H :    0.224970
  55 O :   -0.636989
  56 H :    0.420321
  57 O :   -0.638897
  58 H :    0.425987
Sum of atomic charges:   -1.0000000

--------------------------------
MULLIKEN REDUCED ORBITAL CHARGES
--------------------------------
  0 H s       :     0.579250  s :     0.579250
  1 O s       :     3.829832  s :     3.829832
      pz      :     1.360035  p :     4.765412
      px      :     1.591214
      py      :     1.814162
      dz2     :     0.007976  d :     0.028410
      dxz     :     0.007375
      dyz     :     0.003056
      dx2y2   :     0.003689
      dxy     :     0.006313
  2 C s       :     3.274675  s :     3.274675
      pz      :     0.702854  p :     2.836954
      px      :     1.032709
      py      :     1.101391
      dz2     :     0.020277  d :     0.066050
      dxz     :     0.013529
      dyz     :     0.014521
      dx2y2   :     0.004892
      dxy     :     0.012831
  3 H s       :     0.808920  s :     0.808920
  4 H s       :     0.775964  s :     0.775964
  5 C s       :     3.212102  s :     3.212102
      pz      :     1.088834  p :     2.674921
      px      :     0.820817
      py      :     0.765270
      dz2     :     0.014299  d :     0.068289
      dxz     :     0.011382
      dyz     :     0.010490
      dx2y2   :     0.011437
      dxy     :     0.020682
  6 H s       :     0.774710  s :     0.774710
  7 O s       :     3.817306  s :     3.817306
      pz      :     1.841160  p :     4.657473
      px      :     1.248375
      py      :     1.567938
      dz2     :     0.004583  d :     0.029967
      dxz     :     0.003591
      dyz     :     0.003354
      dx2y2   :     0.008254
      dxy     :     0.010184
  8 C s       :     3.155079  s :     3.155079
      pz      :     0.850959  p :     2.559521
      px      :     0.762339
      py      :     0.946223
      dz2     :     0.016807  d :     0.084938
      dxz     :     0.021815
      dyz     :     0.011835
      dx2y2   :     0.019018
      dxy     :     0.015464
  9 H s       :     0.729432  s :     0.729432
 10 N s       :     3.570682  s :     3.570682
      pz      :     1.256941  p :     3.963982
      px      :     1.149042
      py      :     1.557999
      dz2     :     0.010731  d :     0.039430
      dxz     :     0.009629
      dyz     :     0.005853
      dx2y2   :     0.007633
      dxy     :     0.005582
 11 C s       :     3.160210  s :     3.160210
      pz      :     0.847005  p :     2.705208
      px      :     0.989860
      py      :     0.868344
      dz2     :     0.013762  d :     0.058107
      dxz     :     0.017773
      dyz     :     0.011416
      dx2y2   :     0.009170
      dxy     :     0.005986
[...]
      dxz     :     0.018487
      dyz     :     0.009584
      dx2y2   :     0.006926
      dxy     :     0.008294
 21 C s       :     2.877737  s :     2.877737
      pz      :     1.114868  p :     3.007388
      px      :     1.023075
      py      :     0.869445
      dz2     :     0.034736  d :     0.158716
      dxz     :     0.015004
      dyz     :     0.027217
      dx2y2   :     0.036631
      dxy     :     0.045127
 22 H s       :     0.848411  s :     0.848411
 23 C s       :     2.886768  s :     2.886768
      pz      :     0.880463  p :     2.994291
      px      :     1.086776
      py      :     1.027052
      dz2     :     0.047237  d :     0.157777
      dxz     :     0.039268
      dyz     :     0.026078
      dx2y2   :     0.032546
      dxy     :     0.012648
 24 H s       :     0.866514  s :     0.866514
 25 O s       :     3.524916  s :     3.524916
      pz      :     1.470319  p :     4.823349
      px      :     1.755920
      py      :     1.597110
      dz2     :     0.020576  d :     0.049995
      dxz     :     0.008564
      dyz     :     0.007007
      dx2y2   :     0.002886
      dxy     :     0.010962
 26 H s       :     0.688119  s :     0.688119
 27 O s       :     3.495785  s :     3.495785
      pz      :     1.710845  p :     4.804684
      px      :     1.764528
      py      :     1.329311
      dz2     :     0.006850  d :     0.050575
      dxz     :     0.004306
      dyz     :     0.017844
      dx2y2   :     0.010448
      dxy     :     0.011127
 28 P s       :     4.833007  s :     4.833007
      pz      :     2.785615  p :     8.255056
      px      :     2.726022
      py      :     2.743419
      dz2     :     0.243458  d :     1.101420
      dxz     :     0.172207
      dyz     :     0.282405
      dx2y2   :     0.236325
      dxy     :     0.167025
 29 O s       :     3.607548  s :     3.607548
      pz      :     1.685893  p :     4.959401
      px      :     1.659939
      py      :     1.613569
      dz2     :     0.004380  d :     0.035410
      dxz     :     0.005128
      dyz     :     0.008636
      dx2y2   :     0.006711
      dxy     :     0.010555
 30 O s       :     3.606506  s :     3.606506
      pz      :     1.550201  p :     4.957599
      px      :     1.711976
      py      :     1.695422
      dz2     :     0.016455  d :     0.035631
      dxz     :     0.007720
      dyz     :     0.009583
      dx2y2   :     0.000941
      dxy     :     0.000932
 31 O s       :     3.495929  s :     3.495929
      pz      :     1.533008  p :     4.816893
      px      :     1.508045
      py      :     1.775840
      dz2     :     0.015161  d :     0.049271
      dxz     :     0.010134
      dyz     :     0.008077
      dx2y2   :     0.010404
      dxy     :     0.005496
 32 C s       :     2.912253  s :     2.912253
      pz      :     0.913494  p :     3.034669
      px      :     1.023444
      py      :     1.097730
      dz2     :     0.035603  d :     0.138563
      dxz     :     0.026626
      dyz     :     0.034189
      dx2y2   :     0.029499
      dxy     :     0.012647
 33 H s       :     0.885435  s :     0.885435
 34 H s       :     0.865473  s :     0.865473
 35 C s       :     2.884187  s :     2.884187
      pz      :     1.079648  p :     2.978802
      px      :     1.052390
      py      :     0.846764
      dz2     :     0.026429  d :     0.151682
      dxz     :     0.017127
      dyz     :     0.036555
      dx2y2   :     0.038144
      dxy     :     0.033427
 36 H s       :     0.873411  s :     0.873411
 37 O s       :     3.468767  s :     3.468767
      pz      :     1.686509  p :     4.689212
      px      :     1.486331
      py      :     1.516373
      dz2     :     0.009260  d :     0.065339
      dxz     :     0.013821
      dyz     :     0.008897
      dx2y2   :     0.019490
      dxy     :     0.013871
 38 C s       :     2.867892  s :     2.867892
      pz      :     0.879321  p :     2.861101
      px      :     0.964285
      py      :     1.017495
      dz2     :     0.042398  d :     0.184882
      dxz     :     0.040733
      dyz     :     0.034823
      dx2y2   :     0.042931
      dxy     :     0.023997
 39 H s       :     0.848011  s :     0.848011
 40 N s       :     3.071269  s :     3.071269
      pz      :     1.290490  p :     3.921367
      px      :     1.194506
      py      :     1.436372
      dz2     :     0.019138  d :     0.100948
      dxz     :     0.030484
      dyz     :     0.012611
      dx2y2   :     0.019888
      dxy     :     0.018827
 41 C s       :     2.890679  s :     2.890679
      pz      :     1.054046  p :     2.995179
      px      :     0.984705
      py      :     0.956428
      dz2     :     0.025592  d :     0.129498
      dxz     :     0.039760
      dyz     :     0.014965
      dx2y2   :     0.023488
      dxy     :     0.025692
 42 H s       :     0.825382  s :     0.825382
 43 C s       :     2.907222  s :     2.907222
      pz      :     1.077449  p :     3.261553
      px      :     1.087127
      py      :     1.096978
      dz2     :     0.017327  d :     0.081577
      dxz     :     0.025781
      dyz     :     0.013602
      dx2y2   :     0.013663
      dxy     :     0.011204
 44 H s       :     0.826921  s :     0.826921
 45 C s       :     2.821345  s :     2.821345
      pz      :     0.962915  p :     2.789186
      px      :     0.965349
      py      :     0.860922
      dz2     :     0.055633  d :     0.269502
      dxz     :     0.096968
      dyz     :     0.039216
      dx2y2   :     0.034431
      dxy     :     0.043254
 46 O s       :     3.530748  s :     3.530748
      pz      :     1.449870  p :     4.682291
      px      :     1.787131
      py      :     1.445290
      dz2     :     0.018685  d :     0.054256
      dxz     :     0.009516
      dyz     :     0.018564
      dx2y2   :     0.004198
      dxy     :     0.003293
 47 N s       :     3.119504  s :     3.119504
      pz      :     1.292652  p :     4.008816
      px      :     1.220620
      py      :     1.495544
      dz2     :     0.015498  d :     0.076129
      dxz     :     0.024273
      dyz     :     0.011552
      dx2y2   :     0.013102
      dxy     :     0.011704
 48 H s       :     0.719965  s :     0.719965
 49 C s       :     2.783220  s :     2.783220
      pz      :     0.908725  p :     2.745697
      px      :     0.989615
      py      :     0.847356
      dz2     :     0.064109  d :     0.313261
      dxz     :     0.090618
      dyz     :     0.032354
      dx2y2   :     0.056133
      dxy     :     0.070048
 50 O s       :     3.528059  s :     3.528059
      pz      :     1.657368  p :     4.710930
      px      :     1.485044
      py      :     1.568517
      dz2     :     0.007127  d :     0.054428
      dxz     :     0.015702
      dyz     :     0.001894
      dx2y2   :     0.016728
      dxy     :     0.012978
 51 C s       :     2.881794  s :     2.881794
      pz      :     1.100581  p :     3.006474
      px      :     1.064078
      py      :     0.841816
      dz2     :     0.025719  d :     0.157399
      dxz     :     0.022304
      dyz     :     0.032599
      dx2y2   :     0.038950
      dxy     :     0.037826
 52 H s       :     0.863433  s :     0.863433
 53 C s       :     2.890423  s :     2.890423
      pz      :     0.988906  p :     2.995450
      px      :     0.986889
      py      :     1.019655
      dz2     :     0.045326  d :     0.157723
      dxz     :     0.035835
      dyz     :     0.017126
      dx2y2   :     0.034140
      dxy     :     0.025296
 54 H s       :     0.884852  s :     0.884852
 55 O s       :     3.529237  s :     3.529237
      pz      :     1.666908  p :     4.818158
      px      :     1.714651
      py      :     1.436598
      dz2     :     0.010512  d :     0.050736
      dxz     :     0.012440
      dyz     :     0.004917
      dx2y2   :     0.013039
      dxy     :     0.009828
 56 H s       :     0.689587  s :     0.689587
 57 O s       :     3.526342  s :     3.526342
      pz      :     1.580696  p :     4.814667
      px      :     1.895836
      py      :     1.338135
      dz2     :     0.010519  d :     0.050888
      dxz     :     0.002450
      dyz     :     0.021946
      dx2y2   :     0.009316
      dxy     :     0.006656
 58 H s       :     0.679679  s :     0.679679


                      *****************************
                      * MAYER POPULATION ANALYSIS *
                      *****************************

  NA   - Mulliken gross atomic population
  ZA   - Total nuclear charge
  QA   - Mulliken gross atomic charge
  VA   - Mayer's total valence
  BVA  - Mayer's bonded valence
  FA   - Mayer's free valence

  ATOM       NA         ZA         QA         VA         BVA        FA
  0 H      0.5792     1.0000     0.4208     0.7992     0.7992    -0.0000
  1 O      8.6237     8.0000    -0.6237     1.8709     1.8709    -0.0000
  2 C      6.1777     6.0000    -0.1777     3.7433     3.7433     0.0000
  3 H      0.8089     1.0000     0.1911     0.9062     0.9062     0.0000
  4 H      0.7760     1.0000     0.2240     0.8962     0.8962    -0.0000
  5 C      5.9553     6.0000     0.0447     3.6489     3.6489     0.0000
  6 H      0.7747     1.0000     0.2253     0.9030     0.9030    -0.0000
  7 O      8.5047     8.0000    -0.5047     2.0158     2.0158    -0.0000
  8 C      5.7995     6.0000     0.2005     3.6549     3.6549    -0.0000
  9 H      0.7294     1.0000     0.2706     0.8937     0.8937     0.0000
 10 N      7.5741     7.0000    -0.5741     3.1189     3.1189    -0.0000
 11 C      5.9235     6.0000     0.0765     3.5565     3.5565     0.0000
 12 H      0.6781     1.0000     0.3219     0.8954     0.8954     0.0000
 13 C      6.4747     6.0000    -0.4747     3.7466     3.7466    -0.0000
 14 H      0.7600     1.0000     0.2400     0.9202     0.9202    -0.0000
 15 C      5.4313     6.0000     0.5687     4.0633     4.0633     0.0000
 16 O      8.4231     8.0000    -0.4231     2.2005     2.2005    -0.0000
 17 N      7.7387     7.0000    -0.7387     3.0016     3.0016     0.0000
 18 H      0.6125     1.0000     0.3875     0.8416     0.8416     0.0000
 19 C      5.2799     6.0000     0.7201     4.0697     4.0697     0.0000
 20 O      8.4499     8.0000    -0.4499     2.1772     2.1772    -0.0000
 21 C      6.0707     6.0000    -0.0707     3.6728     3.6728    -0.0000
 22 H      0.7167     1.0000     0.2833     0.9050     0.9050    -0.0000
 23 C      6.0297     6.0000    -0.0297     3.6957     3.6957     0.0000
 24 H      0.7248     1.0000     0.2752     0.8919     0.8919    -0.0000
 25 O      8.6534     8.0000    -0.6534     1.8401     1.8401    -0.0000
 26 H      0.5669     1.0000     0.4331     0.8071     0.8071    -0.0000
 27 O      8.6316     8.0000    -0.6316     1.9249     1.9249    -0.0000
 28 P     13.6134    15.0000     1.3866     5.2037     5.2037     0.0000
 29 O      8.7286     8.0000    -0.7286     1.9083     1.9083    -0.0000
 30 O      8.7294     8.0000    -0.7294     1.9091     1.9091     0.0000
 31 O      8.6275     8.0000    -0.6275     1.9358     1.9358    -0.0000
 32 C      6.1633     6.0000    -0.1633     3.7301     3.7301    -0.0000
 33 H      0.7982     1.0000     0.2018     0.9201     0.9201    -0.0000
 34 H      0.7634     1.0000     0.2366     0.9008     0.9008    -0.0000
 35 C      5.9686     6.0000     0.0314     3.6610     3.6610     0.0000
 36 H      0.7754     1.0000     0.2246     0.9004     0.9004     0.0000
 37 O      8.4794     8.0000    -0.4794     2.0309     2.0309    -0.0000
 38 C      5.8046     6.0000     0.1954     3.6527     3.6527    -0.0000
 39 H      0.7128     1.0000     0.2872     0.8912     0.8912    -0.0000
 40 N      7.5730     7.0000    -0.5730     3.1106     3.1106    -0.0000
 41 C      5.9571     6.0000     0.0429     3.5265     3.5265    -0.0000
 42 H      0.6405     1.0000     0.3595     0.8697     0.8697    -0.0000
 43 C      6.4990     6.0000    -0.4990     3.7388     3.7388    -0.0000
 44 H      0.7124     1.0000     0.2876     0.9015     0.9015     0.0000
 45 C      5.4434     6.0000     0.5566     4.0487     4.0487    -0.0000
 46 O      8.4154     8.0000    -0.4154     2.2050     2.2050     0.0000
 47 N      7.7361     7.0000    -0.7361     3.0000     3.0000    -0.0000
 48 H      0.6154     1.0000     0.3846     0.8429     0.8429     0.0000
 49 C      5.2823     6.0000     0.7177     4.0747     4.0747     0.0000
 50 O      8.4553     8.0000    -0.4553     2.1751     2.1751     0.0000
 51 C      6.0713     6.0000    -0.0713     3.6870     3.6870     0.0000
 52 H      0.7394     1.0000     0.2606     0.8907     0.8907    -0.0000
 53 C      6.0213     6.0000    -0.0213     3.7271     3.7271     0.0000
 54 H      0.7750     1.0000     0.2250     0.9026     0.9026    -0.0000
 55 O      8.6370     8.0000    -0.6370     1.8504     1.8504     0.0000
 56 H      0.5797     1.0000     0.4203     0.8184     0.8184     0.0000
 57 O      8.6389     8.0000    -0.6389     1.8693     1.8693    -0.0000
 58 H      0.5740     1.0000     0.4260     0.7963     0.7963    -0.0000

  Mayer bond orders larger than 0.100000
B(  0-H ,  1-O ) :   0.7888 B(  1-O ,  2-C ) :   0.9932 B(  2-C ,  3-H ) :   0.9058 
B(  2-C ,  4-H ) :   0.8890 B(  2-C ,  5-C ) :   0.9739 B(  5-C ,  6-H ) :   0.8912 
B(  5-C ,  7-O ) :   0.9043 B(  5-C , 21-C ) :   0.9179 B(  7-O ,  8-C ) :   1.0097 
B(  8-C ,  9-H ) :   0.8825 B(  8-C , 10-N ) :   0.8342 B(  8-C , 23-C ) :   0.9263 
B( 10-N , 11-C ) :   1.0859 B( 10-N , 19-C ) :   1.0344 B( 11-C , 12-H ) :   0.8230 
B( 11-C , 13-C ) :   1.5929 B( 13-C , 14-H ) :   0.9212 B( 13-C , 15-C ) :   1.0813 
B( 15-C , 16-O ) :   2.0031 B( 15-C , 17-N ) :   0.9706 B( 17-N , 18-H ) :   0.8046 
B( 17-N , 19-C ) :   1.0659 B( 19-C , 20-O ) :   1.9527 B( 21-C , 22-H ) :   0.8337 
B( 21-C , 23-C ) :   0.9374 B( 21-C , 27-O ) :   0.9419 B( 23-C , 24-H ) :   0.8759 
B( 23-C , 25-O ) :   0.9764 B( 25-O , 26-H ) :   0.7454 B( 27-O , 28-P ) :   0.8213 
B( 28-P , 29-O ) :   1.7502 B( 28-P , 30-O ) :   1.7287 B( 28-P , 31-O ) :   0.8286 
B( 31-O , 32-C ) :   0.9315 B( 32-C , 33-H ) :   0.8887 B( 32-C , 34-H ) :   0.8872 
B( 32-C , 35-C ) :   0.9660 B( 35-C , 36-H ) :   0.8878 B( 35-C , 37-O ) :   0.9212 
B( 35-C , 51-C ) :   0.9213 B( 37-O , 38-C ) :   1.0095 B( 38-C , 39-H ) :   0.8731 
B( 38-C , 40-N ) :   0.8511 B( 38-C , 53-C ) :   0.9252 B( 40-N , 41-C ) :   1.0559 
B( 40-N , 49-C ) :   1.0372 B( 41-C , 42-H ) :   0.7978 B( 41-C , 43-C ) :   1.6099 
B( 43-C , 44-H ) :   0.8992 B( 43-C , 45-C ) :   1.0719 B( 45-C , 46-O ) :   2.0016 
B( 45-C , 47-N ) :   0.9692 B( 47-N , 48-H ) :   0.8065 B( 47-N , 49-C ) :   1.0708 
B( 49-C , 50-O ) :   1.9561 B( 51-C , 52-H ) :   0.8663 B( 51-C , 53-C ) :   0.9336 
B( 51-C , 57-O ) :   0.9877 B( 53-C , 54-H ) :   0.9047 B( 53-C , 55-O ) :   1.0062 
B( 55-O , 56-H ) :   0.7549 B( 57-O , 58-H ) :   0.7849 

-------
TIMINGS
-------

Total SCF time: 0 days 0 hours 17 min 6 sec 

Total time                  ....    1026.714 sec
Sum of individual times     ....    1017.085 sec  ( 99.1%)

Fock matrix formation       ....     948.525 sec  ( 92.4%)
  Split-RI-J                ....      57.665 sec  (  6.1% of F)
  Chain of spheres X        ....     791.143 sec  ( 83.4% of F)
  XC integration            ....      86.257 sec  (  9.1% of F)
    Basis function eval.    ....      31.229 sec  ( 36.2% of XC)
    Density eval.           ....      21.277 sec  ( 24.7% of XC)
    XC-Functional eval.     ....       5.170 sec  (  6.0% of XC)
    XC-Potential eval.      ....      10.647 sec  ( 12.3% of XC)
Diagonalization             ....       4.747 sec  (  0.5%)
Density matrix formation    ....       0.548 sec  (  0.1%)
Population analysis         ....       0.492 sec  (  0.0%)
Initial guess               ....       0.329 sec  (  0.0%)
Orbital Transformation      ....       0.000 sec  (  0.0%)
Orbital Orthonormalization  ....       0.000 sec  (  0.0%)
DIIS solution               ....       7.927 sec  (  0.8%)
SOSCF solution              ....       4.313 sec  (  0.4%)
Grid generation             ....      50.204 sec  (  4.9%)

Maximum memory used throughout the entire SCF-calculation: 222.7 MB


-------------------------------------------------------------------------------
                          DFT DISPERSION CORRECTION                            
                                                                               
                              DFTD3 V3.1  Rev 1                                
                          USING Becke-Johnson damping                          
-------------------------------------------------------------------------------
The PBEh-3c composite method is recognized
Using three-body term ABC
Active option DFTDOPT                   ...         4   

molecular C6(AA) [au] = 38272.374214 


            DFT-D V3
 parameters
 s6 scaling factor         :     1.0000 
 a1 scaling factor         :     0.4860 
 s8 scaling factor         :     0.0000 
 a2 scaling factor         :     4.5000 
 Damping factor alpha9(ATM):    16.0000 
 ad hoc parameters k1-k3   :    16.0000     1.3333    -4.0000 

 Edisp/kcal,au: -32.180333936087  -0.051282620954 
 E6   /kcal   : -32.992668673 
 E8   /kcal   :  -0.000000000 
 E6(ABC)      :   0.812334737 
 % E8         :   0.000000000 
 % E6(ABC)    :  -2.524320408 

-------------------------   ----------------
Dispersion correction           -0.051282621
-------------------------   ----------------

------------------   -----------------
gCP correction             0.196368128
------------------   -----------------

-------------------------   --------------------
FINAL SINGLE POINT ENERGY     -2308.305894963723
-------------------------   --------------------


                            ***************************************
                            *     ORCA property calculations      *
                            ***************************************

                                    ---------------------
                                    Active property flags
                                    ---------------------
   (+) Dipole Moment


------------------------------------------------------------------------------
                       ORCA ELECTRIC PROPERTIES CALCULATION
------------------------------------------------------------------------------

Dipole Moment Calculation                       ... on
Quadrupole Moment Calculation                   ... off
Polarizability Calculation                      ... off
GBWName                                         ... pbeh-3c.gbw
Electron density                                ... pbeh-3c.scfp
The origin for moment calculation is the CENTER OF MASS  = ( 0.115435,  0.037703  0.232620)

-------------
DIPOLE MOMENT
-------------
                                X             Y             Z
Electronic contribution:      5.74471       4.01916       6.93089
Nuclear contribution   :     -5.06576      -3.58398      -8.07045
                        -----------------------------------------
Total Dipole Moment    :      0.67894       0.43518      -1.13955
                        -----------------------------------------
Magnitude (a.u.)       :      1.39604
Magnitude (Debye)      :      3.54845



--------------------
Rotational spectrum 
--------------------
 
Rotational constants in cm-1:     0.003968     0.003436     0.002269 
Rotational constants in MHz :   118.958739   103.008393    68.009980 

 Dipole components along the rotational axes: 
x,y,z [a.u.] :     0.157190     0.113197    -1.382536 
x,y,z [Debye]:     0.399546     0.287723    -3.514128 

 

Timings for individual modules:

Sum of individual times         ...     1035.530 sec (=  17.259 min)
GTO integral calculation        ...        7.952 sec (=   0.133 min)   0.8 %
SCF iterations                  ...     1027.579 sec (=  17.126 min)  99.2 %
                             ****ORCA TERMINATED NORMALLY****
TOTAL RUN TIME: 0 days 0 hours 17 minutes 18 seconds 588 msec
