
                                 *****************
                                 * O   R   C   A *
                                 *****************

                                            #,                                       
                                            ###                                      
                                            ####                                     
                                            #####                                    
                                            ######                                   
                                           ########,                                 
                                     ,,################,,,,,                         
                               ,,#################################,,                 
                          ,,##########################################,,             
                       ,#########################################, ''#####,          
                    ,#############################################,,   '####,        
                  ,##################################################,,,,####,       
                ,###########''''           ''''###############################       
              ,#####''   ,,,,##########,,,,          '''####'''          '####       
            ,##' ,,,,###########################,,,                        '##       
           ' ,,###''''                  '''############,,,                           
         ,,##''                                '''############,,,,        ,,,,,,###''
      ,#''                                            '''#######################'''  
     '                                                          ''''####''''         
             ,#######,   #######,   ,#######,      ##                                
            ,#'     '#,  ##    ##  ,#'     '#,    #''#        ######   ,####,        
            ##       ##  ##   ,#'  ##            #'  '#       #        #'  '#        
            ##       ##  #######   ##           ,######,      #####,   #    #        
            '#,     ,#'  ##    ##  '#,     ,#' ,#      #,         ##   #,  ,#        
             '#######'   ##     ##  '#######'  #'      '#     #####' # '####'        



                  #######################################################
                  #                        -***-                        #
                  #          Department of theory and spectroscopy      #
                  #    Directorship and core code : Frank Neese         #
                  #        Max Planck Institute fuer Kohlenforschung    #
                  #                Kaiser Wilhelm Platz 1               #
                  #                 D-45470 Muelheim/Ruhr               #
                  #                      Germany                        #
                  #                                                     #
                  #                  All rights reserved                #
                  #                        -***-                        #
                  #######################################################


                         Program Version 5.0.3 -  RELEASE  -


 With contributions from (in alphabetic order):
   Daniel Aravena         : Magnetic Suceptibility
   Michael Atanasov       : Ab Initio Ligand Field Theory (pilot matlab implementation)
   Alexander A. Auer      : GIAO ZORA, VPT2 properties, NMR spectrum
   Ute Becker             : Parallelization
   Giovanni Bistoni       : ED, misc. LED, open-shell LED, HFLD
   Martin Brehm           : Molecular dynamics
   Dmytro Bykov           : SCF Hessian
   Vijay G. Chilkuri      : MRCI spin determinant printing, contributions to CSF-ICE
   Dipayan Datta          : RHF DLPNO-CCSD density
   Achintya Kumar Dutta   : EOM-CC, STEOM-CC
   Dmitry Ganyushin       : Spin-Orbit,Spin-Spin,Magnetic field MRCI
   Miquel Garcia          : C-PCM and meta-GGA Hessian, CC/C-PCM, Gaussian charge scheme
   Yang Guo               : DLPNO-NEVPT2, F12-NEVPT2, CIM, IAO-localization
   Andreas Hansen         : Spin unrestricted coupled pair/coupled cluster methods
   Benjamin Helmich-Paris : MC-RPA, TRAH-SCF, COSX integrals
   Lee Huntington         : MR-EOM, pCC
   Robert Izsak           : Overlap fitted RIJCOSX, COSX-SCS-MP3, EOM
   Marcus Kettner         : VPT2
   Christian Kollmar      : KDIIS, OOCD, Brueckner-CCSD(T), CCSD density, CASPT2, CASPT2-K
   Simone Kossmann        : Meta GGA functionals, TD-DFT gradient, OOMP2, MP2 Hessian
   Martin Krupicka        : Initial AUTO-CI
   Lucas Lang             : DCDCAS
   Marvin Lechner         : AUTO-CI (C++ implementation), FIC-MRCC
   Dagmar Lenk            : GEPOL surface, SMD
   Dimitrios Liakos       : Extrapolation schemes; Compound Job, initial MDCI parallelization
   Dimitrios Manganas     : Further ROCIS development; embedding schemes
   Dimitrios Pantazis     : SARC Basis sets
   Anastasios Papadopoulos: AUTO-CI, single reference methods and gradients
   Taras Petrenko         : DFT Hessian,TD-DFT gradient, ASA, ECA, R-Raman, ABS, FL, XAS/XES, NRVS
   Peter Pinski           : DLPNO-MP2, DLPNO-MP2 Gradient
   Christoph Reimann      : Effective Core Potentials
   Marius Retegan         : Local ZFS, SOC
   Christoph Riplinger    : Optimizer, TS searches, QM/MM, DLPNO-CCSD(T), (RO)-DLPNO pert. Triples
   Tobias Risthaus        : Range-separated hybrids, TD-DFT gradient, RPA, STAB
   Michael Roemelt        : Original ROCIS implementation
   Masaaki Saitow         : Open-shell DLPNO-CCSD energy and density
   Barbara Sandhoefer     : DKH picture change effects
   Avijit Sen             : IP-ROCIS
   Kantharuban Sivalingam : CASSCF convergence, NEVPT2, FIC-MRCI
   Bernardo de Souza      : ESD, SOC TD-DFT
   Georgi Stoychev        : AutoAux, RI-MP2 NMR, DLPNO-MP2 response
   Willem Van den Heuvel  : Paramagnetic NMR
   Boris Wezisla          : Elementary symmetry handling
   Frank Wennmohs         : Technical directorship


 We gratefully acknowledge several colleagues who have allowed us to
 interface, adapt or use parts of their codes:
   Stefan Grimme, W. Hujo, H. Kruse, P. Pracht,  : VdW corrections, initial TS optimization,
                  C. Bannwarth, S. Ehlert          DFT functionals, gCP, sTDA/sTD-DF
   Ed Valeev, F. Pavosevic, A. Kumar             : LibInt (2-el integral package), F12 methods
   Garnet Chan, S. Sharma, J. Yang, R. Olivares  : DMRG
   Ulf Ekstrom                                   : XCFun DFT Library
   Mihaly Kallay                                 : mrcc  (arbitrary order and MRCC methods)
   Jiri Pittner, Ondrej Demel                    : Mk-CCSD
   Frank Weinhold                                : gennbo (NPA and NBO analysis)
   Christopher J. Cramer and Donald G. Truhlar   : smd solvation model
   Lars Goerigk                                  : TD-DFT with DH, B97 family of functionals
   V. Asgeirsson, H. Jonsson                     : NEB implementation
   FAccTs GmbH                                   : IRC, NEB, NEB-TS, DLPNO-Multilevel, CI-OPT
                                                   MM, QMMM, 2- and 3-layer-ONIOM, Crystal-QMMM,
                                                   LR-CPCM, SF, NACMEs, symmetry and pop. for TD-DFT,
                                                   nearIR, NL-DFT gradient (VV10), updates on ESD,
                                                   ML-optimized integration grids
   S Lehtola, MJT Oliveira, MAL Marques          : LibXC Library
   Liviu Ungur et al                             : ANISO software


 Your calculation uses the libint2 library for the computation of 2-el integrals
 For citations please refer to: http://libint.valeyev.net

 Your ORCA version has been built with support for libXC version: 5.1.0
 For citations please refer to: https://tddft.org/programs/libxc/

 This ORCA versions uses:
   CBLAS   interface :  Fast vector & matrix operations
   LAPACKE interface :  Fast linear algebra routines
   SCALAPACK package :  Parallel linear algebra routines
   Shared memory     :  Shared parallel matrices
   BLAS/LAPACK       :  OpenBLAS 0.3.15  USE64BITINT DYNAMIC_ARCH NO_AFFINITY Haswell SINGLE_THREADED
        Core in use  :  Haswell
   Copyright (c) 2011-2014, The OpenBLAS Project




***************************************
The coordinates will be read from file: 13r_7.xyz
***************************************


Your calculation utilizes the geometrical counterpoise correction gCP
Please cite in your paper:
H.Kruse, S. Grimme J.Chem.Phys., 136, (2012), 154101 
   

Your calculation utilizes the atom-pairwise dispersion correction
with the Becke-Johnson damping scheme (D3BJ)
Cite in your paper:
S.Grimme, S.Ehrlich, L.Goerigk, J Comput Chem, (2011), 32, 1456–1465 
S.Grimme, J.Antony, S.Ehrlich and H.Krieg, J.Chem.Phys., 132, (2010), 154104 
   

Your calculation employs the composite approach PBEh-3c.
Please cite in your paper:
S. Grimme, J. G. Brandenburg, C. Bannwarth, A. Hansen J.Chem.Phys., 143, (2015), 054107 
   

================================================================================

----- Orbital basis set information -----
Your calculation utilizes the basis: def2-mSVP

----- AuxJ basis set information -----
Your calculation utilizes the auxiliary basis: def2/J
   F. Weigend, Phys. Chem. Chem. Phys. 8, 1057 (2006).

================================================================================
                                        WARNINGS
                       Please study these warnings very carefully!
================================================================================


INFO   : the flag for use of the SHARK integral package has been found!

================================================================================
                                       INPUT FILE
================================================================================
NAME = pbeh-3c.inp
|  1> ! PBEh-3c def2/J TightSCF DefGrid3
|  2> 
|  3> %maxcore 60000
|  4> 
|  5> %pal
|  6> nprocs 4
|  7> end
|  8> 
|  9> *xyzfile 0 1 13r_7.xyz
| 10> 
| 11>                          ****END OF INPUT****
================================================================================

                       ****************************
                       * Single Point Calculation *
                       ****************************

---------------------------------
CARTESIAN COORDINATES (ANGSTROEM)
---------------------------------
  C     -0.624216    0.285940    0.000000
  H     -0.680921    1.363543    0.000000
  H     -1.489692   -0.358474    0.000000
  N      0.555738   -0.269246    0.000000
  H      0.553690   -1.301767    0.000000
  O      1.685402    0.280004    0.000000

----------------------------
CARTESIAN COORDINATES (A.U.)
----------------------------
  NO LB      ZA    FRAG     MASS         X           Y           Z
   0 C     6.0000    0    12.011   -1.179598    0.540348    0.000000
   1 H     1.0000    0     1.008   -1.286755    2.576723    0.000000
   2 H     1.0000    0     1.008   -2.815110   -0.677417    0.000000
   3 N     7.0000    0    14.007    1.050193   -0.508801    0.000000
   4 H     1.0000    0     1.008    1.046322   -2.459984    0.000000
   5 O     8.0000    0    15.999    3.184947    0.529132    0.000000

--------------------------------
INTERNAL COORDINATES (ANGSTROEM)
--------------------------------
 C      0   0   0     0.000000000000     0.00000000     0.00000000
 H      1   0   0     1.079094127663     0.00000000     0.00000000
 H      1   2   0     1.079035391974   123.65831862     0.00000000
 N      1   2   3     1.304041141090   118.20989537   180.00000000
 H      4   1   2     1.032523231096   115.08403257   180.00000000
 O      4   1   2     1.256111488191   128.87296621     0.00000000

---------------------------
INTERNAL COORDINATES (A.U.)
---------------------------
 C      0   0   0     0.000000000000     0.00000000     0.00000000
 H      1   0   0     2.039192374006     0.00000000     0.00000000
 H      1   2   0     2.039081379640   123.65831862     0.00000000
 N      1   2   3     2.464280624027   118.20989537   180.00000000
 H      4   1   2     1.951186133683   115.08403257   180.00000000
 O      4   1   2     2.373706706353   128.87296621     0.00000000

---------------------
BASIS SET INFORMATION
---------------------
There are 4 groups of distinct atoms

 Group   1 Type C   : 8s4p1d contracted to 4s2p1d pattern {5111/31/1}
 Group   2 Type H   : 4s contracted to 2s pattern {31}
 Group   3 Type N   : 8s4p1d contracted to 4s2p1d pattern {5111/31/1}
 Group   4 Type O   : 8s4p1d contracted to 4s2p1d pattern {5111/31/1}

Atom   0C    basis set group =>   1
Atom   1H    basis set group =>   2
Atom   2H    basis set group =>   2
Atom   3N    basis set group =>   3
Atom   4H    basis set group =>   2
Atom   5O    basis set group =>   4
---------------------------------
AUXILIARY/J BASIS SET INFORMATION
---------------------------------
There are 4 groups of distinct atoms

 Group   1 Type C   : 12s5p4d2f1g contracted to 6s4p3d1f1g pattern {711111/2111/211/2/1}
 Group   2 Type H   : 5s2p1d contracted to 3s1p1d pattern {311/2/1}
 Group   3 Type N   : 12s5p4d2f1g contracted to 6s4p3d1f1g pattern {711111/2111/211/2/1}
 Group   4 Type O   : 12s5p4d2f1g contracted to 6s4p3d1f1g pattern {711111/2111/211/2/1}

Atom   0C    basis set group =>   1
Atom   1H    basis set group =>   2
Atom   2H    basis set group =>   2
Atom   3N    basis set group =>   3
Atom   4H    basis set group =>   2
Atom   5O    basis set group =>   4


           ************************************************************
           *        Program running with 4 parallel MPI-processes     *
           *              working on a common directory               *
           ************************************************************
------------------------------------------------------------------------------
                           ORCA GTO INTEGRAL CALCULATION
                           -- RI-GTO INTEGRALS CHOSEN --
------------------------------------------------------------------------------
------------------------------------------------------------------------------
                   ___                                                        
                  /   \      - P O W E R E D   B Y -                         
                 /     \                                                     
                 |  |  |   _    _      __       _____    __    __             
                 |  |  |  | |  | |    /  \     |  _  \  |  |  /  |          
                  \  \/   | |  | |   /    \    | | | |  |  | /  /          
                 / \  \   | |__| |  /  /\  \   | |_| |  |  |/  /          
                |  |  |   |  __  | /  /__\  \  |    /   |      \           
                |  |  |   | |  | | |   __   |  |    \   |  |\   \          
                \     /   | |  | | |  |  |  |  | |\  \  |  | \   \       
                 \___/    |_|  |_| |__|  |__|  |_| \__\ |__|  \__/        
                                                                              
                      - O R C A' S   B I G   F R I E N D -                    
                                      &                                       
                       - I N T E G R A L  F E E D E R -                       
                                                                              
 v1 FN, 2020, v2 2021                                                         
------------------------------------------------------------------------------


Reading SHARK input file pbeh-3c.SHARKINP.tmp ... ok
----------------------
SHARK INTEGRAL PACKAGE
----------------------

Number of atoms                             ...      6
Number of basis functions                   ...     51
Number of shells                            ...     27
Maximum angular momentum                    ...      2
Integral batch strategy                     ... SHARK/LIBINT Hybrid
RI-J (if used) integral strategy            ... SPLIT-RIJ (Revised 2003 algorithm where possible)
Printlevel                                  ...      1
Contraction scheme used                     ... SEGMENTED contraction
Coulomb Range Separation                    ... NOT USED
Exchange Range Separation                   ... NOT USED
Finite Nucleus Model                        ... NOT USED
Auxiliary Coulomb fitting basis             ... AVAILABLE
   # of basis functions in Aux-J            ...    180
   # of shells in Aux-J                     ...     60
   Maximum angular momentum in Aux-J        ...      4
Auxiliary J/K fitting basis                 ... NOT available
Auxiliary Correlation fitting basis         ... NOT available
Auxiliary 'external' fitting basis          ... NOT available
Integral threshold                          ...     2.500000e-11
Primitive cut-off                           ...     2.500000e-12
Primitive pair pre-selection threshold      ...     2.500000e-12

Calculating pre-screening integrals         ... done (  0.1 sec) Dimension = 27
Organizing shell pair data                  ... done (  0.1 sec)
Shell pair information
Total number of shell pairs                 ...       378
Shell pairs after pre-screening             ...       372
Total number of primitive shell pairs       ...      1374
Primitive shell pairs kept                  ...      1119
          la=0 lb=0:    165 shell pairs
          la=1 lb=0:    108 shell pairs
          la=1 lb=1:     21 shell pairs
          la=2 lb=0:     54 shell pairs
          la=2 lb=1:     18 shell pairs
          la=2 lb=2:      6 shell pairs

Calculating one electron integrals          ... done (  0.0 sec)
Calculating RI/J V-Matrix + Cholesky decomp.... done (  0.3 sec)
Calculating Nuclear repulsion               ... done (  0.1 sec) ENN=     72.133021965663 Eh

SHARK setup successfully completed in   1.3 seconds

Maximum memory used throughout the entire GTOINT-calculation: 9.1 MB


           ************************************************************
           *        Program running with 4 parallel MPI-processes     *
           *              working on a common directory               *
           ************************************************************
-------------------------------------------------------------------------------
                                 ORCA SCF
-------------------------------------------------------------------------------

------------
SCF SETTINGS
------------
Hamiltonian:
 Density Functional     Method          .... DFT(GTOs)
 Exchange Functional    Exchange        .... PBE
   PBE kappa parameter   XKappa         ....  1.024500
   PBE mue parameter    XMuePBE         ....  0.123457
 Correlation Functional Correlation     .... PBE
   PBE beta parameter  CBetaPBE         ....  0.030000
 LDA part of GGA corr.  LDAOpt          .... PW91-LDA
 Gradients option       PostSCFGGA      .... off
 Hybrid DFT is turned on
   Fraction HF Exchange ScalHFX         ....  0.420000
   Scaling of DF-GGA-X  ScalDFX         ....  0.580000
   Scaling of DF-GGA-C  ScalDFC         ....  1.000000
   Scaling of DF-LDA-C  ScalLDAC        ....  1.000000
   Perturbative correction              ....  0.000000
   Density functional embedding theory  .... OFF
 RI-approximation to the Coulomb term is turned on
   Number of AuxJ basis functions       .... 180
   RIJ-ON(X) (HFX calculated with O(N)) .... on
   Number of AuxJ basis functions       .... 180
   RIJ-COSX (HFX calculated with COS-X)).... on


General Settings:
 Integral files         IntName         .... pbeh-3c
 Hartree-Fock type      HFTyp           .... RHF
 Total Charge           Charge          ....    0
 Multiplicity           Mult            ....    1
 Number of Electrons    NEL             ....   24
 Basis Dimension        Dim             ....   51
 Nuclear Repulsion      ENuc            ....     72.1330219657 Eh

Convergence Acceleration:
 DIIS                   CNVDIIS         .... on
   Start iteration      DIISMaxIt       ....    12
   Startup error        DIISStart       ....  0.200000
   # of expansion vecs  DIISMaxEq       ....     5
   Bias factor          DIISBfac        ....   1.050
   Max. coefficient     DIISMaxC        ....  10.000
 Trust-Rad. Augm. Hess. CNVTRAH         .... auto
   Auto Start mean grad. ratio tolernc. ....  1.125000
   Auto Start start iteration           ....    20
   Auto Start num. interpolation iter.  ....    10
   Max. Number of Micro iterations      ....    16
   Max. Number of Macro iterations      .... Maxiter - #DIIS iter
   Number of Davidson start vectors     ....     2
   Converg. threshold I  (grad. norm)   ....   1.000e-05
   Converg. threshold II (energy diff.) ....   1.000e-08
   Grad. Scal. Fac. for Micro threshold ....   0.100
   Minimum threshold for Micro iter.    ....   0.010
   NR start threshold (gradient norm)   ....   0.001
   Initial trust radius                 ....   0.400
   Minimum AH scaling param. (alpha)    ....   1.000
   Maximum AH scaling param. (alpha)    .... 1000.000
   Orbital update algorithm             .... Taylor
   White noise on init. David. guess    .... on
   Maximum white noise                  ....   0.010
   Quad. conv. algorithm                .... NR
   COSX micro iterations for RIJONX calc.... off
 SOSCF                  CNVSOSCF        .... on
   Start iteration      SOSCFMaxIt      ....   150
   Startup grad/error   SOSCFStart      ....  0.003300
 Level Shifting         CNVShift        .... on
   Level shift para.    LevelShift      ....    0.2500
   Turn off err/grad.   ShiftErr        ....    0.0010
 Zerner damping         CNVZerner       .... off
 Static damping         CNVDamp         .... on
   Fraction old density DampFac         ....    0.7000
   Max. Damping (<1)    DampMax         ....    0.9800
   Min. Damping (>=0)   DampMin         ....    0.0000
   Turn off err/grad.   DampErr         ....    0.1000
 Fernandez-Rico         CNVRico         .... off

SCF Procedure:
 Maximum # iterations   MaxIter         ....   125
 SCF integral mode      SCFMode         .... Direct
   Integral package                     .... SHARK and LIBINT hybrid scheme
 Reset frequency        DirectResetFreq ....    20
 Integral Threshold     Thresh          ....  2.500e-11 Eh
 Primitive CutOff       TCut            ....  2.500e-12 Eh

Convergence Tolerance:
 Convergence Check Mode ConvCheckMode   .... Total+1el-Energy
 Convergence forced     ConvForced      .... 0
 Energy Change          TolE            ....  1.000e-08 Eh
 1-El. energy change                    ....  1.000e-05 Eh
 Orbital Gradient       TolG            ....  1.000e-05
 Orbital Rotation angle TolX            ....  1.000e-05
 DIIS Error             TolErr          ....  5.000e-07


Diagonalization of the overlap matrix:
Smallest eigenvalue                        ... 9.433e-03
Time for diagonalization                   ...    0.001 sec
Threshold for overlap eigenvalues          ... 1.000e-08
Number of eigenvalues below threshold      ... 0
Time for construction of square roots      ...    0.167 sec
Total time needed                          ...    0.168 sec

--------------------------------
INITIAL GUESS: MINIMAL BASIS EHT
--------------------------------
The minimal basis has 18 functions
EHT matrix was diagonalized
Basis set overlap was calculated now projecting the orbitals
Using GuessMode=FMatrix for the initial guess
C*T matrix was formed
Effective Fockian was calculated
Effective Fockian was diagonalized
Initial density was built
                      ------------------
                      INITIAL GUESS DONE
                      ------------------
-------------------
DFT GRID GENERATION
-------------------

General Integration Accuracy     IntAcc      ... 4.959
Radial Grid Type                 RadialGrid  ... OptM3 with GC (2021)
Angular Grid (max. ang.)         AngularGrid ... 6 (Lebedev-590)
Angular grid pruning method      GridPruning ... 4 (adaptive)
Weight generation scheme         WeightScheme... Becke
Basis function cutoff            BFCut       ... 1.0000e-11
Integration weight cutoff        WCut        ... 1.0000e-14
Angular grids for H and He will be reduced by one unit
Partially contracted basis set               ... off
Rotationally invariant grid construction     ... off

Total number of grid points                  ...    70357
Total number of batches                      ...     1102
Average number of points per batch           ...       63
Average number of grid points per atom       ...    11726
Time for grid setup =    1.301 sec

--------------------
COSX GRID GENERATION
--------------------

GRIDX 1
-------
General Integration Accuracy     IntAcc      ... 4.020
Radial Grid Type                 RadialGrid  ... OptM3 with GC (2021)
Angular Grid (max. ang.)         AngularGrid ... 2 (Lebedev-110)
Angular grid pruning method      GridPruning ... 4 (adaptive)
Weight generation scheme         WeightScheme... Becke
Basis function cutoff            BFCut       ... 1.0000e-11
Integration weight cutoff        WCut        ... 1.0000e-14
Angular grids for H and He will be reduced by one unit
Partially contracted basis set               ... on
Rotationally invariant grid construction     ... off

Total number of grid points                  ...     7965
Total number of batches                      ...      127
Average number of points per batch           ...       62
Average number of grid points per atom       ...     1328
UseSFitting                                  ... on

GRIDX 2
-------
General Integration Accuracy     IntAcc      ... 4.338
Radial Grid Type                 RadialGrid  ... OptM3 with GC (2021)
Angular Grid (max. ang.)         AngularGrid ... 3 (Lebedev-194)
Angular grid pruning method      GridPruning ... 4 (adaptive)
Weight generation scheme         WeightScheme... Becke
Basis function cutoff            BFCut       ... 1.0000e-11
Integration weight cutoff        WCut        ... 1.0000e-14
Angular grids for H and He will be reduced by one unit
Partially contracted basis set               ... on
Rotationally invariant grid construction     ... off

Total number of grid points                  ...    17612
Total number of batches                      ...      279
Average number of points per batch           ...       63
Average number of grid points per atom       ...     2935
UseSFitting                                  ... on

GRIDX 3
-------
General Integration Accuracy     IntAcc      ... 4.871
Radial Grid Type                 RadialGrid  ... OptM3 with GC (2021)
Angular Grid (max. ang.)         AngularGrid ... 4 (Lebedev-302)
Angular grid pruning method      GridPruning ... 4 (adaptive)
Weight generation scheme         WeightScheme... Becke
Basis function cutoff            BFCut       ... 1.0000e-11
Integration weight cutoff        WCut        ... 1.0000e-14
Angular grids for H and He will be reduced by one unit
Partially contracted basis set               ... on
Rotationally invariant grid construction     ... off

Total number of grid points                  ...    33971
Total number of batches                      ...      534
Average number of points per batch           ...       63
Average number of grid points per atom       ...     5662
UseSFitting                                  ... on

Time for X-Grid setup             =    2.429 sec

--------------
SCF ITERATIONS
--------------
ITER       Energy         Delta-E        Max-DP      RMS-DP      [F,P]     Damp
               ***  Starting incremental Fock matrix formation  ***
  0   -168.7260603291   0.000000000000 0.26686382  0.01450776  0.5701262 0.7000
  1   -169.0138625244  -0.287802195309 0.14136486  0.00675594  0.2736459 0.7000
                               ***Turning on DIIS***
  2   -169.1176601238  -0.103797599422 0.05136929  0.00312609  0.1920993 0.7000
  3   -169.2070255821  -0.089365458331 0.04337063  0.00253467  0.1342002 0.7000
  4   -169.2741354583  -0.067109876158 0.11043502  0.00616539  0.0939655 0.0000
  5   -169.4322831499  -0.158147691591 0.01222596  0.00057781  0.0112425 0.0000
  6   -169.4326900922  -0.000406942298 0.00469129  0.00031344  0.0057625 0.0000
  7   -169.4327806868  -0.000090594622 0.00309752  0.00015686  0.0037214 0.0000
                      *** Initiating the SOSCF procedure ***
                           *** Shutting down DIIS ***
                      *** Re-Reading the Fockian *** 
                      *** Removing any level shift *** 
ITER      Energy       Delta-E        Grad      Rot      Max-DP    RMS-DP
  8   -169.43281140  -0.0000307139  0.000765  0.000765  0.001527  0.000121
               *** Restarting incremental Fock matrix formation ***
  9   -169.43281397  -0.0000025715  0.000096  0.000351  0.000346  0.000016
 10   -169.43281401  -0.0000000366  0.000082  0.000087  0.000125  0.000011
 11   -169.43281406  -0.0000000547  0.000015  0.000021  0.000035  0.000003
 12   -169.43281407  -0.0000000032  0.000004  0.000003  0.000007  0.000001
                  ***Gradient check signals convergence***
              ***Rediagonalizing the Fockian in SOSCF/NRSCF***

               *****************************************************
               *                     SUCCESS                       *
               *           SCF CONVERGED AFTER  13 CYCLES          *
               *****************************************************

Old exchange energy                            =     -8.812698394 Eh
New exchange energy                            =     -8.812695750 Eh
Exchange energy change after final integration =      0.000002644 Eh
Total energy after final integration           =   -169.432811422 Eh
Final COS-X integration done in                =     0.627 sec

----------------
TOTAL SCF ENERGY
----------------

Total Energy       :         -169.43281142 Eh           -4610.50119 eV

Components:
Nuclear Repulsion  :           72.13302197 Eh            1962.83932 eV
Electronic Energy  :         -241.56583339 Eh           -6573.34051 eV
One Electron Energy:         -373.26868466 Eh          -10157.15729 eV
Two Electron Energy:          131.70285128 Eh            3583.81678 eV
Max COSX asymmetry :            0.00000129 Eh               0.00003 eV

Virial components:
Potential Energy   :         -337.74107491 Eh           -9190.40188 eV
Kinetic Energy     :          168.30826349 Eh            4579.90069 eV
Virial Ratio       :            2.00668148


DFT components:
N(Alpha)           :       11.999999835880 electrons
N(Beta)            :       11.999999835880 electrons
N(Total)           :       23.999999671760 electrons
E(X)               :      -11.760349534919 Eh       
E(C)               :       -1.055923023009 Eh       
E(XC)              :      -12.816272557928 Eh       
DFET-embed. en.    :        0.000000000000 Eh       

---------------
SCF CONVERGENCE
---------------

  Last Energy change         ...   -8.9244e-12  Tolerance :   1.0000e-08
  Last MAX-Density change    ...    6.6613e-16  Tolerance :   1.0000e-07
  Last RMS-Density change    ...    6.0344e-17  Tolerance :   5.0000e-09
  Last Orbital Gradient      ...    1.6155e-06  Tolerance :   1.0000e-05
  Last Orbital Rotation      ...    2.0322e-06  Tolerance :   1.0000e-05

             **** THE GBW FILE WAS UPDATED (pbeh-3c.gbw) ****
             **** DENSITY pbeh-3c.scfp WAS UPDATED ****
             **** ENERGY FILE WAS UPDATED (pbeh-3c.en.tmp) ****
             **** THE GBW FILE WAS UPDATED (pbeh-3c.gbw) ****
             **** DENSITY pbeh-3c.scfp WAS UPDATED ****
----------------
ORBITAL ENERGIES
----------------

  NO   OCC          E(Eh)            E(eV) 
   0   2.0000     -19.468534      -529.7657 
   1   2.0000     -14.791696      -402.5025 
   2   2.0000     -10.485421      -285.3228 
   3   2.0000      -1.222774       -33.2734 
   4   2.0000      -0.956944       -26.0398 
   5   2.0000      -0.740968       -20.1628 
   6   2.0000      -0.618875       -16.8404 
   7   2.0000      -0.545977       -14.8568 
   8   2.0000      -0.513312       -13.9679 
   9   2.0000      -0.479654       -13.0521 
  10   2.0000      -0.312142        -8.4938 
  11   2.0000      -0.272795        -7.4231 
  12   0.0000       0.001110         0.0302 
  13   0.0000       0.108323         2.9476 
  14   0.0000       0.174868         4.7584 
  15   0.0000       0.204486         5.5643 
  16   0.0000       0.267947         7.2912 
  17   0.0000       0.370695        10.0871 
  18   0.0000       0.526573        14.3288 
  19   0.0000       0.552385        15.0312 
  20   0.0000       0.627692        17.0804 
  21   0.0000       0.685712        18.6592 
  22   0.0000       0.737394        20.0655 
  23   0.0000       0.796263        21.6674 
  24   0.0000       0.916383        24.9360 
  25   0.0000       0.973141        26.4805 
  26   0.0000       0.992402        27.0046 
  27   0.0000       1.033755        28.1299 
  28   0.0000       1.089236        29.6396 
  29   0.0000       1.146279        31.1918 
  30   0.0000       1.293913        35.2092 
  31   0.0000       1.382340        37.6154 
  32   0.0000       1.423669        38.7400 
  33   0.0000       1.484629        40.3988 
  34   0.0000       1.750135        47.6236 
  35   0.0000       1.802944        49.0606 
  36   0.0000       1.923493        52.3409 
  37   0.0000       1.951890        53.1136 
  38   0.0000       2.032515        55.3075 
  39   0.0000       2.065024        56.1922 
  40   0.0000       2.195907        59.7537 
  41   0.0000       2.302124        62.6440 
  42   0.0000       2.351599        63.9903 
  43   0.0000       2.495231        67.8987 
  44   0.0000       2.690367        73.2086 
  45   0.0000       2.727116        74.2086 
  46   0.0000       2.904278        79.0294 
  47   0.0000       3.095526        84.2335 
  48   0.0000      13.626192       370.7875 
  49   0.0000      19.107204       519.9335 
  50   0.0000      25.582108       696.1245 

                    ********************************
                    * MULLIKEN POPULATION ANALYSIS *
                    ********************************

-----------------------
MULLIKEN ATOMIC CHARGES
-----------------------
   0 C :   -0.360761
   1 H :    0.256150
   2 H :    0.225602
   3 N :   -0.017937
   4 H :    0.355324
   5 O :   -0.458377
Sum of atomic charges:   -0.0000000

--------------------------------
MULLIKEN REDUCED ORBITAL CHARGES
--------------------------------
  0 C s       :     3.262353  s :     3.262353
      pz      :     1.096758  p :     3.052161
      px      :     0.867475
      py      :     1.087927
      dz2     :     0.005512  d :     0.046248
      dxz     :     0.006932
      dyz     :     0.001949
      dx2y2   :     0.015445
      dxy     :     0.016410
  1 H s       :     0.743850  s :     0.743850
  2 H s       :     0.774398  s :     0.774398
  3 N s       :     3.410370  s :     3.410370
      pz      :     1.278152  p :     3.501731
      px      :     1.020229
      py      :     1.203350
      dz2     :     0.004904  d :     0.105836
      dxz     :     0.033242
      dyz     :     0.001455
      dx2y2   :     0.042558
      dxy     :     0.023678
  4 H s       :     0.644676  s :     0.644676
  5 O s       :     3.835011  s :     3.835011
      pz      :     1.570625  p :     4.583126
      px      :     1.280885
      py      :     1.731616
      dz2     :     0.005413  d :     0.040241
      dxz     :     0.008666
      dyz     :     0.002221
      dx2y2   :     0.011141
      dxy     :     0.012799


                     *******************************
                     * LOEWDIN POPULATION ANALYSIS *
                     *******************************

----------------------
LOEWDIN ATOMIC CHARGES
----------------------
   0 C :   -0.269122
   1 H :    0.149844
   2 H :    0.135195
   3 N :    0.103222
   4 H :    0.238732
   5 O :   -0.357870

-------------------------------
LOEWDIN REDUCED ORBITAL CHARGES
-------------------------------
  0 C s       :     2.976901  s :     2.976901
      pz      :     1.103143  p :     3.199664
      px      :     0.995762
      py      :     1.100759
      dz2     :     0.009137  d :     0.092557
      dxz     :     0.012295
      dyz     :     0.002998
      dx2y2   :     0.032500
      dxy     :     0.035626
  1 H s       :     0.850156  s :     0.850156
  2 H s       :     0.864805  s :     0.864805
  3 N s       :     3.062185  s :     3.062185
      pz      :     1.222469  p :     3.599614
      px      :     1.173147
      py      :     1.203998
      dz2     :     0.010277  d :     0.234979
      dxz     :     0.067036
      dyz     :     0.002551
      dx2y2   :     0.094221
      dxy     :     0.060893
  4 H s       :     0.761268  s :     0.761268
  5 O s       :     3.597125  s :     3.597125
      pz      :     1.570038  p :     4.681360
      px      :     1.360306
      py      :     1.751016
      dz2     :     0.010900  d :     0.079385
      dxz     :     0.015828
      dyz     :     0.003642
      dx2y2   :     0.022112
      dxy     :     0.026902


                      *****************************
                      * MAYER POPULATION ANALYSIS *
                      *****************************

  NA   - Mulliken gross atomic population
  ZA   - Total nuclear charge
  QA   - Mulliken gross atomic charge
  VA   - Mayer's total valence
  BVA  - Mayer's bonded valence
  FA   - Mayer's free valence

  ATOM       NA         ZA         QA         VA         BVA        FA
  0 C      6.3608     6.0000    -0.3608     3.7129     3.7129    -0.0000
  1 H      0.7438     1.0000     0.2562     0.9174     0.9174    -0.0000
  2 H      0.7744     1.0000     0.2256     0.9232     0.9232    -0.0000
  3 N      7.0179     7.0000    -0.0179     3.8081     3.8081    -0.0000
  4 H      0.6447     1.0000     0.3553     0.8297     0.8297    -0.0000
  5 O      8.4584     8.0000    -0.4584     1.8617     1.8617    -0.0000

  Mayer bond orders larger than 0.100000
B(  0-C ,  1-H ) :   0.9099 B(  0-C ,  2-H ) :   0.9102 B(  0-C ,  3-N ) :   1.5622 
B(  0-C ,  5-O ) :   0.3366 B(  3-N ,  4-H ) :   0.7906 B(  3-N ,  5-O ) :   1.4642 


-------
TIMINGS
-------

Total SCF time: 0 days 0 hours 0 min 55 sec 

Total time                  ....      55.625 sec
Sum of individual times     ....      48.209 sec  ( 86.7%)

Fock matrix formation       ....      39.990 sec  ( 71.9%)
  Split-RI-J                ....       5.209 sec  ( 13.0% of F)
  Chain of spheres X        ....       5.970 sec  ( 14.9% of F)
  XC integration            ....      14.535 sec  ( 36.3% of F)
    Basis function eval.    ....       0.671 sec  (  4.6% of XC)
    Density eval.           ....       0.670 sec  (  4.6% of XC)
    XC-Functional eval.     ....       0.726 sec  (  5.0% of XC)
    XC-Potential eval.      ....       0.195 sec  (  1.3% of XC)
Diagonalization             ....       0.404 sec  (  0.7%)
Density matrix formation    ....       0.046 sec  (  0.1%)
Population analysis         ....       0.945 sec  (  1.7%)
Initial guess               ....       0.002 sec  (  0.0%)
Orbital Transformation      ....       0.000 sec  (  0.0%)
Orbital Orthonormalization  ....       0.000 sec  (  0.0%)
DIIS solution               ....       2.510 sec  (  4.5%)
SOSCF solution              ....       0.583 sec  (  1.0%)
Grid generation             ....       3.730 sec  (  6.7%)

Maximum memory used throughout the entire SCF-calculation: 45.5 MB


-------------------------------------------------------------------------------
                          DFT DISPERSION CORRECTION                            
                                                                               
                              DFTD3 V3.1  Rev 1                                
                          USING Becke-Johnson damping                          
-------------------------------------------------------------------------------
The PBEh-3c composite method is recognized
Using three-body term ABC
Active option DFTDOPT                   ...         4   

molecular C6(AA) [au] = 316.162717 


            DFT-D V3
 parameters
 s6 scaling factor         :     1.0000 
 a1 scaling factor         :     0.4860 
 s8 scaling factor         :     0.0000 
 a2 scaling factor         :     4.5000 
 Damping factor alpha9(ATM):    16.0000 
 ad hoc parameters k1-k3   :    16.0000     1.3333    -4.0000 

 Edisp/kcal,au: -0.891179085750  -0.001420184121 
 E6   /kcal   :  -0.891432738 
 E8   /kcal   :  -0.000000000 
 E6(ABC)      :   0.000253652 
 % E8         :   0.000000000 
 % E6(ABC)    :  -0.028462540 

-------------------------   ----------------
Dispersion correction           -0.001420184
-------------------------   ----------------

------------------   -----------------
gCP correction             0.011918996
------------------   -----------------

-------------------------   --------------------
FINAL SINGLE POINT ENERGY      -169.422312610751
-------------------------   --------------------


                            ***************************************
                            *     ORCA property calculations      *
                            ***************************************

                                    ---------------------
                                    Active property flags
                                    ---------------------
   (+) Dipole Moment


------------------------------------------------------------------------------
                       ORCA ELECTRIC PROPERTIES CALCULATION
------------------------------------------------------------------------------

Dipole Moment Calculation                       ... on
Quadrupole Moment Calculation                   ... off
Polarizability Calculation                      ... off
GBWName                                         ... pbeh-3c.gbw
Electron density                                ... pbeh-3c.scfp
The origin for moment calculation is the CENTER OF MASS  = ( 1.074974,  0.161270  0.000000)

-------------
DIPOLE MOMENT
-------------
                                X             Y             Z
Electronic contribution:      1.87235      -0.20391       0.00000
Nuclear contribution   :     -3.10157      -0.51762       0.00000
                        -----------------------------------------
Total Dipole Moment    :     -1.22922      -0.72153       0.00000
                        -----------------------------------------
Magnitude (a.u.)       :      1.42533
Magnitude (Debye)      :      3.62291



--------------------
Rotational spectrum 
--------------------
 
Rotational constants in cm-1:     2.540488     0.393036     0.340377 
Rotational constants in MHz : 76161.907165 11782.919601 10204.234425 

 Dipole components along the rotational axes: 
x,y,z [a.u.] :     1.229213    -0.721532     0.000000 
x,y,z [Debye]:     3.124412    -1.833989     0.000000 

 

Timings for individual modules:

Sum of individual times         ...       58.975 sec (=   0.983 min)
GTO integral calculation        ...        2.307 sec (=   0.038 min)   3.9 %
SCF iterations                  ...       56.668 sec (=   0.944 min)  96.1 %
                             ****ORCA TERMINATED NORMALLY****
TOTAL RUN TIME: 0 days 0 hours 1 minutes 5 seconds 589 msec
