
                                 *****************
                                 * O   R   C   A *
                                 *****************

                                            #,                                       
                                            ###                                      
                                            ####                                     
                                            #####                                    
                                            ######                                   
                                           ########,                                 
                                     ,,################,,,,,                         
                               ,,#################################,,                 
                          ,,##########################################,,             
                       ,#########################################, ''#####,          
                    ,#############################################,,   '####,        
                  ,##################################################,,,,####,       
                ,###########''''           ''''###############################       
              ,#####''   ,,,,##########,,,,          '''####'''          '####       
            ,##' ,,,,###########################,,,                        '##       
           ' ,,###''''                  '''############,,,                           
         ,,##''                                '''############,,,,        ,,,,,,###''
      ,#''                                            '''#######################'''  
     '                                                          ''''####''''         
             ,#######,   #######,   ,#######,      ##                                
            ,#'     '#,  ##    ##  ,#'     '#,    #''#        ######   ,####,        
            ##       ##  ##   ,#'  ##            #'  '#       #        #'  '#        
            ##       ##  #######   ##           ,######,      #####,   #    #        
            '#,     ,#'  ##    ##  '#,     ,#' ,#      #,         ##   #,  ,#        
             '#######'   ##     ##  '#######'  #'      '#     #####' # '####'        



                  #######################################################
                  #                        -***-                        #
                  #          Department of theory and spectroscopy      #
                  #    Directorship and core code : Frank Neese         #
                  #        Max Planck Institute fuer Kohlenforschung    #
                  #                Kaiser Wilhelm Platz 1               #
                  #                 D-45470 Muelheim/Ruhr               #
                  #                      Germany                        #
                  #                                                     #
                  #                  All rights reserved                #
                  #                        -***-                        #
                  #######################################################


                         Program Version 5.0.3 -  RELEASE  -


 With contributions from (in alphabetic order):
   Daniel Aravena         : Magnetic Suceptibility
   Michael Atanasov       : Ab Initio Ligand Field Theory (pilot matlab implementation)
   Alexander A. Auer      : GIAO ZORA, VPT2 properties, NMR spectrum
   Ute Becker             : Parallelization
   Giovanni Bistoni       : ED, misc. LED, open-shell LED, HFLD
   Martin Brehm           : Molecular dynamics
   Dmytro Bykov           : SCF Hessian
   Vijay G. Chilkuri      : MRCI spin determinant printing, contributions to CSF-ICE
   Dipayan Datta          : RHF DLPNO-CCSD density
   Achintya Kumar Dutta   : EOM-CC, STEOM-CC
   Dmitry Ganyushin       : Spin-Orbit,Spin-Spin,Magnetic field MRCI
   Miquel Garcia          : C-PCM and meta-GGA Hessian, CC/C-PCM, Gaussian charge scheme
   Yang Guo               : DLPNO-NEVPT2, F12-NEVPT2, CIM, IAO-localization
   Andreas Hansen         : Spin unrestricted coupled pair/coupled cluster methods
   Benjamin Helmich-Paris : MC-RPA, TRAH-SCF, COSX integrals
   Lee Huntington         : MR-EOM, pCC
   Robert Izsak           : Overlap fitted RIJCOSX, COSX-SCS-MP3, EOM
   Marcus Kettner         : VPT2
   Christian Kollmar      : KDIIS, OOCD, Brueckner-CCSD(T), CCSD density, CASPT2, CASPT2-K
   Simone Kossmann        : Meta GGA functionals, TD-DFT gradient, OOMP2, MP2 Hessian
   Martin Krupicka        : Initial AUTO-CI
   Lucas Lang             : DCDCAS
   Marvin Lechner         : AUTO-CI (C++ implementation), FIC-MRCC
   Dagmar Lenk            : GEPOL surface, SMD
   Dimitrios Liakos       : Extrapolation schemes; Compound Job, initial MDCI parallelization
   Dimitrios Manganas     : Further ROCIS development; embedding schemes
   Dimitrios Pantazis     : SARC Basis sets
   Anastasios Papadopoulos: AUTO-CI, single reference methods and gradients
   Taras Petrenko         : DFT Hessian,TD-DFT gradient, ASA, ECA, R-Raman, ABS, FL, XAS/XES, NRVS
   Peter Pinski           : DLPNO-MP2, DLPNO-MP2 Gradient
   Christoph Reimann      : Effective Core Potentials
   Marius Retegan         : Local ZFS, SOC
   Christoph Riplinger    : Optimizer, TS searches, QM/MM, DLPNO-CCSD(T), (RO)-DLPNO pert. Triples
   Tobias Risthaus        : Range-separated hybrids, TD-DFT gradient, RPA, STAB
   Michael Roemelt        : Original ROCIS implementation
   Masaaki Saitow         : Open-shell DLPNO-CCSD energy and density
   Barbara Sandhoefer     : DKH picture change effects
   Avijit Sen             : IP-ROCIS
   Kantharuban Sivalingam : CASSCF convergence, NEVPT2, FIC-MRCI
   Bernardo de Souza      : ESD, SOC TD-DFT
   Georgi Stoychev        : AutoAux, RI-MP2 NMR, DLPNO-MP2 response
   Willem Van den Heuvel  : Paramagnetic NMR
   Boris Wezisla          : Elementary symmetry handling
   Frank Wennmohs         : Technical directorship


 We gratefully acknowledge several colleagues who have allowed us to
 interface, adapt or use parts of their codes:
   Stefan Grimme, W. Hujo, H. Kruse, P. Pracht,  : VdW corrections, initial TS optimization,
                  C. Bannwarth, S. Ehlert          DFT functionals, gCP, sTDA/sTD-DF
   Ed Valeev, F. Pavosevic, A. Kumar             : LibInt (2-el integral package), F12 methods
   Garnet Chan, S. Sharma, J. Yang, R. Olivares  : DMRG
   Ulf Ekstrom                                   : XCFun DFT Library
   Mihaly Kallay                                 : mrcc  (arbitrary order and MRCC methods)
   Jiri Pittner, Ondrej Demel                    : Mk-CCSD
   Frank Weinhold                                : gennbo (NPA and NBO analysis)
   Christopher J. Cramer and Donald G. Truhlar   : smd solvation model
   Lars Goerigk                                  : TD-DFT with DH, B97 family of functionals
   V. Asgeirsson, H. Jonsson                     : NEB implementation
   FAccTs GmbH                                   : IRC, NEB, NEB-TS, DLPNO-Multilevel, CI-OPT
                                                   MM, QMMM, 2- and 3-layer-ONIOM, Crystal-QMMM,
                                                   LR-CPCM, SF, NACMEs, symmetry and pop. for TD-DFT,
                                                   nearIR, NL-DFT gradient (VV10), updates on ESD,
                                                   ML-optimized integration grids
   S Lehtola, MJT Oliveira, MAL Marques          : LibXC Library
   Liviu Ungur et al                             : ANISO software


 Your calculation uses the libint2 library for the computation of 2-el integrals
 For citations please refer to: http://libint.valeyev.net

 Your ORCA version has been built with support for libXC version: 5.1.0
 For citations please refer to: https://tddft.org/programs/libxc/

 This ORCA versions uses:
   CBLAS   interface :  Fast vector & matrix operations
   LAPACKE interface :  Fast linear algebra routines
   SCALAPACK package :  Parallel linear algebra routines
   Shared memory     :  Shared parallel matrices
   BLAS/LAPACK       :  OpenBLAS 0.3.15  USE64BITINT DYNAMIC_ARCH NO_AFFINITY Haswell SINGLE_THREADED
        Core in use  :  Haswell
   Copyright (c) 2011-2014, The OpenBLAS Project




***************************************
The coordinates will be read from file: B11.xyz
***************************************


Your calculation utilizes the geometrical counterpoise correction gCP
Please cite in your paper:
H.Kruse, S. Grimme J.Chem.Phys., 136, (2012), 154101 
   

Your calculation utilizes the atom-pairwise dispersion correction
with the Becke-Johnson damping scheme (D3BJ)
Cite in your paper:
S.Grimme, S.Ehrlich, L.Goerigk, J Comput Chem, (2011), 32, 1456–1465 
S.Grimme, J.Antony, S.Ehrlich and H.Krieg, J.Chem.Phys., 132, (2010), 154104 
   

Your calculation employs the composite approach PBEh-3c.
Please cite in your paper:
S. Grimme, J. G. Brandenburg, C. Bannwarth, A. Hansen J.Chem.Phys., 143, (2015), 054107 
   

================================================================================

----- Orbital basis set information -----
Your calculation utilizes the basis: def2-mSVP

----- AuxJ basis set information -----
Your calculation utilizes the auxiliary basis: def2/J
   F. Weigend, Phys. Chem. Chem. Phys. 8, 1057 (2006).

================================================================================
                                        WARNINGS
                       Please study these warnings very carefully!
================================================================================


INFO   : the flag for use of the SHARK integral package has been found!

================================================================================
                                       INPUT FILE
================================================================================
NAME = pbeh-3c.inp
|  1> ! PBEh-3c def2/J TightSCF DefGrid3
|  2> 
|  3> %maxcore 60000
|  4> 
|  5> %pal
|  6> nprocs 4
|  7> end
|  8> 
|  9> *xyzfile 0 1 B11.xyz
| 10> 
| 11>                          ****END OF INPUT****
================================================================================

                       ****************************
                       * Single Point Calculation *
                       ****************************

---------------------------------
CARTESIAN COORDINATES (ANGSTROEM)
---------------------------------
  C      1.354844   -0.452677    0.585396
  H      0.731177   -1.343318    0.628550
  O      2.039332   -0.526982   -0.666433
  C      0.496426    0.798053    0.724398
  H     -0.053259    0.727453    1.664295
  H      1.145592    1.675656    0.800447
  C     -0.485477    1.005494   -0.432447
  H      0.061765    1.223648   -1.350854
  H     -1.116085    1.869231   -0.213831
  H      2.638223    0.223634   -0.710118
  H      2.063775   -0.510474    1.416623
  C     -1.372713   -0.198173   -0.697009
  H     -2.100308    0.049056   -1.475351
  H     -0.768777   -1.036087   -1.055132
  O     -2.035322   -0.535087    0.523877
  H     -2.592655   -1.298432    0.353790

----------------------------
CARTESIAN COORDINATES (A.U.)
----------------------------
  NO LB      ZA    FRAG     MASS         X           Y           Z
   0 C     6.0000    0    12.011    2.560284   -0.855436    1.106238
   1 H     1.0000    0     1.008    1.381724   -2.538503    1.187787
   2 O     8.0000    0    15.999    3.853779   -0.995852   -1.259376
   3 C     6.0000    0    12.011    0.938109    1.508102    1.368914
   4 H     1.0000    0     1.008   -0.100645    1.374687    3.145062
   5 H     1.0000    0     1.008    2.164855    3.166531    1.512626
   6 C     6.0000    0    12.011   -0.917419    1.900108   -0.817206
   7 H     1.0000    0     1.008    0.116719    2.312360   -2.552744
   8 H     1.0000    0     1.008   -2.109095    3.532335   -0.404082
   9 H     1.0000    0     1.008    4.985519    0.422607   -1.341929
  10 H     1.0000    0     1.008    3.899970   -0.964656    2.677030
  11 C     6.0000    0    12.011   -2.594052   -0.374493   -1.317156
  12 H     1.0000    0     1.008   -3.969007    0.092702   -2.788009
  13 H     1.0000    0     1.008   -1.452778   -1.957921   -1.993911
  14 O     8.0000    0    15.999   -3.846201   -1.011168    0.989984
  15 H     1.0000    0     1.008   -4.899408   -2.453681    0.668566

--------------------------------
INTERNAL COORDINATES (ANGSTROEM)
--------------------------------
 C      0   0   0     0.000000000000     0.00000000     0.00000000
 H      1   0   0     1.088147134117     0.00000000     0.00000000
 O      1   2   0     1.428678025452   105.47257793     0.00000000
 C      1   2   3     1.523328116864   110.20802499   122.41293082
 H      4   1   2     1.091120676110   108.02093723    57.25343383
 H      4   1   2     1.094251786184   109.30086136   173.23299976
 C      4   1   2     1.531488042368   113.80208226   295.23462784
 H      7   4   1     1.091117038603   109.95779709   292.78298087
 H      7   4   1     1.091558981590   109.04387178   175.19376261
 H      3   1   2     0.961250845806   107.31988674   183.21602615
 H      1   2   3     1.094011874478   107.33937593   241.98981307
 C      7   4   1     1.518550301580   113.50536222    53.55564747
 H     12   7   4     1.093770054184   109.47994805   175.31960641
 H     12   7   4     1.093202015467   109.98897577   293.73709708
 O     12   7   4     1.429379010365   107.99099263    54.77269934
 H     15  12   7     0.960336008636   107.76473745   180.21753970

---------------------------
INTERNAL COORDINATES (A.U.)
---------------------------
 C      0   0   0     0.000000000000     0.00000000     0.00000000
 H      1   0   0     2.056300076892     0.00000000     0.00000000
 O      1   2   0     2.699810201656   105.47257793     0.00000000
 C      1   2   3     2.878672952975   110.20802499   122.41293082
 H      4   1   2     2.061919256906   108.02093723    57.25343383
 H      4   1   2     2.067836197441   109.30086136   173.23299976
 C      4   1   2     2.894092977450   113.80208226   295.23462784
 H      7   4   1     2.061912383014   109.95779709   292.78298087
 H      7   4   1     2.062747534226   109.04387178   175.19376261
 H      3   1   2     1.816500844573   107.31988674   183.21602615
 H      1   2   3     2.067382830021   107.33937593   241.98981307
 C      7   4   1     2.869644190570   113.50536222    53.55564747
 H     12   7   4     2.066925855892   109.47994805   175.31960641
 H     12   7   4     2.065852418283   109.98897577   293.73709708
 O     12   7   4     2.701134871166   107.99099263    54.77269934
 H     15  12   7     1.814772052865   107.76473745   180.21753970

---------------------
BASIS SET INFORMATION
---------------------
There are 3 groups of distinct atoms

 Group   1 Type C   : 8s4p1d contracted to 4s2p1d pattern {5111/31/1}
 Group   2 Type H   : 4s contracted to 2s pattern {31}
 Group   3 Type O   : 8s4p1d contracted to 4s2p1d pattern {5111/31/1}

Atom   0C    basis set group =>   1
Atom   1H    basis set group =>   2
Atom   2O    basis set group =>   3
Atom   3C    basis set group =>   1
Atom   4H    basis set group =>   2
Atom   5H    basis set group =>   2
Atom   6C    basis set group =>   1
Atom   7H    basis set group =>   2
Atom   8H    basis set group =>   2
Atom   9H    basis set group =>   2
Atom  10H    basis set group =>   2
Atom  11C    basis set group =>   1
Atom  12H    basis set group =>   2
Atom  13H    basis set group =>   2
Atom  14O    basis set group =>   3
Atom  15H    basis set group =>   2
---------------------------------
AUXILIARY/J BASIS SET INFORMATION
---------------------------------
There are 3 groups of distinct atoms

 Group   1 Type C   : 12s5p4d2f1g contracted to 6s4p3d1f1g pattern {711111/2111/211/2/1}
 Group   2 Type H   : 5s2p1d contracted to 3s1p1d pattern {311/2/1}
 Group   3 Type O   : 12s5p4d2f1g contracted to 6s4p3d1f1g pattern {711111/2111/211/2/1}

Atom   0C    basis set group =>   1
Atom   1H    basis set group =>   2
Atom   2O    basis set group =>   3
Atom   3C    basis set group =>   1
Atom   4H    basis set group =>   2
Atom   5H    basis set group =>   2
Atom   6C    basis set group =>   1
Atom   7H    basis set group =>   2
Atom   8H    basis set group =>   2
Atom   9H    basis set group =>   2
Atom  10H    basis set group =>   2
Atom  11C    basis set group =>   1
Atom  12H    basis set group =>   2
Atom  13H    basis set group =>   2
Atom  14O    basis set group =>   3
Atom  15H    basis set group =>   2


           ************************************************************
           *        Program running with 4 parallel MPI-processes     *
           *              working on a common directory               *
           ************************************************************
------------------------------------------------------------------------------
                           ORCA GTO INTEGRAL CALCULATION
                           -- RI-GTO INTEGRALS CHOSEN --
------------------------------------------------------------------------------
------------------------------------------------------------------------------
                   ___                                                        
                  /   \      - P O W E R E D   B Y -                         
                 /     \                                                     
                 |  |  |   _    _      __       _____    __    __             
                 |  |  |  | |  | |    /  \     |  _  \  |  |  /  |          
                  \  \/   | |  | |   /    \    | | | |  |  | /  /          
                 / \  \   | |__| |  /  /\  \   | |_| |  |  |/  /          
                |  |  |   |  __  | /  /__\  \  |    /   |      \           
                |  |  |   | |  | | |   __   |  |    \   |  |\   \          
                \     /   | |  | | |  |  |  |  | |\  \  |  | \   \       
                 \___/    |_|  |_| |__|  |__|  |_| \__\ |__|  \__/        
                                                                              
                      - O R C A' S   B I G   F R I E N D -                    
                                      &                                       
                       - I N T E G R A L  F E E D E R -                       
                                                                              
 v1 FN, 2020, v2 2021                                                         
------------------------------------------------------------------------------


Reading SHARK input file pbeh-3c.SHARKINP.tmp ... ok
----------------------
SHARK INTEGRAL PACKAGE
----------------------

Number of atoms                             ...     16
Number of basis functions                   ...    110
Number of shells                            ...     62
Maximum angular momentum                    ...      2
Integral batch strategy                     ... SHARK/LIBINT Hybrid
RI-J (if used) integral strategy            ... SPLIT-RIJ (Revised 2003 algorithm where possible)
Printlevel                                  ...      1
Contraction scheme used                     ... SEGMENTED contraction
Coulomb Range Separation                    ... NOT USED
Exchange Range Separation                   ... NOT USED
Finite Nucleus Model                        ... NOT USED
Auxiliary Coulomb fitting basis             ... AVAILABLE
   # of basis functions in Aux-J            ...    404
   # of shells in Aux-J                     ...    140
   Maximum angular momentum in Aux-J        ...      4
Auxiliary J/K fitting basis                 ... NOT available
Auxiliary Correlation fitting basis         ... NOT available
Auxiliary 'external' fitting basis          ... NOT available
Integral threshold                          ...     2.500000e-11
Primitive cut-off                           ...     2.500000e-12
Primitive pair pre-selection threshold      ...     2.500000e-12

Calculating pre-screening integrals         ... done (  0.1 sec) Dimension = 62
Organizing shell pair data                  ... done (  0.1 sec)
Shell pair information
Total number of shell pairs                 ...      1953
Shell pairs after pre-screening             ...      1834
Total number of primitive shell pairs       ...      7129
Primitive shell pairs kept                  ...      4921
          la=0 lb=0:    897 shell pairs
          la=1 lb=0:    514 shell pairs
          la=1 lb=1:     77 shell pairs
          la=2 lb=0:    253 shell pairs
          la=2 lb=1:     72 shell pairs
          la=2 lb=2:     21 shell pairs

Calculating one electron integrals          ... done (  0.0 sec)
Calculating RI/J V-Matrix + Cholesky decomp.... done (  0.1 sec)
Calculating Nuclear repulsion               ... done (  0.0 sec) ENN=    260.079712399710 Eh

SHARK setup successfully completed in   0.6 seconds

Maximum memory used throughout the entire GTOINT-calculation: 10.5 MB


           ************************************************************
           *        Program running with 4 parallel MPI-processes     *
           *              working on a common directory               *
           ************************************************************
-------------------------------------------------------------------------------
                                 ORCA SCF
-------------------------------------------------------------------------------

------------
SCF SETTINGS
------------
Hamiltonian:
 Density Functional     Method          .... DFT(GTOs)
 Exchange Functional    Exchange        .... PBE
   PBE kappa parameter   XKappa         ....  1.024500
   PBE mue parameter    XMuePBE         ....  0.123457
 Correlation Functional Correlation     .... PBE
   PBE beta parameter  CBetaPBE         ....  0.030000
 LDA part of GGA corr.  LDAOpt          .... PW91-LDA
 Gradients option       PostSCFGGA      .... off
 Hybrid DFT is turned on
   Fraction HF Exchange ScalHFX         ....  0.420000
   Scaling of DF-GGA-X  ScalDFX         ....  0.580000
   Scaling of DF-GGA-C  ScalDFC         ....  1.000000
   Scaling of DF-LDA-C  ScalLDAC        ....  1.000000
   Perturbative correction              ....  0.000000
   Density functional embedding theory  .... OFF
 RI-approximation to the Coulomb term is turned on
   Number of AuxJ basis functions       .... 404
   RIJ-ON(X) (HFX calculated with O(N)) .... on
   Number of AuxJ basis functions       .... 404
   RIJ-COSX (HFX calculated with COS-X)).... on


General Settings:
 Integral files         IntName         .... pbeh-3c
 Hartree-Fock type      HFTyp           .... RHF
 Total Charge           Charge          ....    0
 Multiplicity           Mult            ....    1
 Number of Electrons    NEL             ....   50
 Basis Dimension        Dim             ....  110
 Nuclear Repulsion      ENuc            ....    260.0797123997 Eh

Convergence Acceleration:
 DIIS                   CNVDIIS         .... on
   Start iteration      DIISMaxIt       ....    12
   Startup error        DIISStart       ....  0.200000
   # of expansion vecs  DIISMaxEq       ....     5
   Bias factor          DIISBfac        ....   1.050
   Max. coefficient     DIISMaxC        ....  10.000
 Trust-Rad. Augm. Hess. CNVTRAH         .... auto
   Auto Start mean grad. ratio tolernc. ....  1.125000
   Auto Start start iteration           ....    20
   Auto Start num. interpolation iter.  ....    10
   Max. Number of Micro iterations      ....    16
   Max. Number of Macro iterations      .... Maxiter - #DIIS iter
   Number of Davidson start vectors     ....     2
   Converg. threshold I  (grad. norm)   ....   1.000e-05
   Converg. threshold II (energy diff.) ....   1.000e-08
   Grad. Scal. Fac. for Micro threshold ....   0.100
   Minimum threshold for Micro iter.    ....   0.010
   NR start threshold (gradient norm)   ....   0.001
   Initial trust radius                 ....   0.400
   Minimum AH scaling param. (alpha)    ....   1.000
   Maximum AH scaling param. (alpha)    .... 1000.000
   Orbital update algorithm             .... Taylor
   White noise on init. David. guess    .... on
   Maximum white noise                  ....   0.010
   Quad. conv. algorithm                .... NR
   COSX micro iterations for RIJONX calc.... off
 SOSCF                  CNVSOSCF        .... on
   Start iteration      SOSCFMaxIt      ....   150
   Startup grad/error   SOSCFStart      ....  0.003300
 Level Shifting         CNVShift        .... on
   Level shift para.    LevelShift      ....    0.2500
   Turn off err/grad.   ShiftErr        ....    0.0010
 Zerner damping         CNVZerner       .... off
 Static damping         CNVDamp         .... on
   Fraction old density DampFac         ....    0.7000
   Max. Damping (<1)    DampMax         ....    0.9800
   Min. Damping (>=0)   DampMin         ....    0.0000
   Turn off err/grad.   DampErr         ....    0.1000
 Fernandez-Rico         CNVRico         .... off

SCF Procedure:
 Maximum # iterations   MaxIter         ....   125
 SCF integral mode      SCFMode         .... Direct
   Integral package                     .... SHARK and LIBINT hybrid scheme
 Reset frequency        DirectResetFreq ....    20
 Integral Threshold     Thresh          ....  2.500e-11 Eh
 Primitive CutOff       TCut            ....  2.500e-12 Eh

Convergence Tolerance:
 Convergence Check Mode ConvCheckMode   .... Total+1el-Energy
 Convergence forced     ConvForced      .... 0
 Energy Change          TolE            ....  1.000e-08 Eh
 1-El. energy change                    ....  1.000e-05 Eh
 Orbital Gradient       TolG            ....  1.000e-05
 Orbital Rotation angle TolX            ....  1.000e-05
 DIIS Error             TolErr          ....  5.000e-07


Diagonalization of the overlap matrix:
Smallest eigenvalue                        ... 6.239e-03
Time for diagonalization                   ...    0.003 sec
Threshold for overlap eigenvalues          ... 1.000e-08
Number of eigenvalues below threshold      ... 0
Time for construction of square roots      ...    0.059 sec
Total time needed                          ...    0.086 sec

--------------------------------
INITIAL GUESS: MINIMAL BASIS EHT
--------------------------------
The minimal basis has 40 functions
EHT matrix was diagonalized
Basis set overlap was calculated now projecting the orbitals
Using GuessMode=FMatrix for the initial guess
C*T matrix was formed
Effective Fockian was calculated
Effective Fockian was diagonalized
Initial density was built
                      ------------------
                      INITIAL GUESS DONE
                      ------------------
-------------------
DFT GRID GENERATION
-------------------

General Integration Accuracy     IntAcc      ... 4.959
Radial Grid Type                 RadialGrid  ... OptM3 with GC (2021)
Angular Grid (max. ang.)         AngularGrid ... 6 (Lebedev-590)
Angular grid pruning method      GridPruning ... 4 (adaptive)
Weight generation scheme         WeightScheme... Becke
Basis function cutoff            BFCut       ... 1.0000e-11
Integration weight cutoff        WCut        ... 1.0000e-14
Angular grids for H and He will be reduced by one unit
Partially contracted basis set               ... off
Rotationally invariant grid construction     ... off

Total number of grid points                  ...   172999
Total number of batches                      ...     2713
Average number of points per batch           ...       63
Average number of grid points per atom       ...    10812
Time for grid setup =    2.971 sec

--------------------
COSX GRID GENERATION
--------------------

GRIDX 1
-------
General Integration Accuracy     IntAcc      ... 4.020
Radial Grid Type                 RadialGrid  ... OptM3 with GC (2021)
Angular Grid (max. ang.)         AngularGrid ... 2 (Lebedev-110)
Angular grid pruning method      GridPruning ... 4 (adaptive)
Weight generation scheme         WeightScheme... Becke
Basis function cutoff            BFCut       ... 1.0000e-11
Integration weight cutoff        WCut        ... 1.0000e-14
Angular grids for H and He will be reduced by one unit
Partially contracted basis set               ... on
Rotationally invariant grid construction     ... off

Total number of grid points                  ...    18428
Total number of batches                      ...      297
Average number of points per batch           ...       62
Average number of grid points per atom       ...     1152
UseSFitting                                  ... on

GRIDX 2
-------
General Integration Accuracy     IntAcc      ... 4.338
Radial Grid Type                 RadialGrid  ... OptM3 with GC (2021)
Angular Grid (max. ang.)         AngularGrid ... 3 (Lebedev-194)
Angular grid pruning method      GridPruning ... 4 (adaptive)
Weight generation scheme         WeightScheme... Becke
Basis function cutoff            BFCut       ... 1.0000e-11
Integration weight cutoff        WCut        ... 1.0000e-14
Angular grids for H and He will be reduced by one unit
Partially contracted basis set               ... on
Rotationally invariant grid construction     ... off

Total number of grid points                  ...    40340
Total number of batches                      ...      640
Average number of points per batch           ...       63
Average number of grid points per atom       ...     2521
UseSFitting                                  ... on

GRIDX 3
-------
General Integration Accuracy     IntAcc      ... 4.871
Radial Grid Type                 RadialGrid  ... OptM3 with GC (2021)
Angular Grid (max. ang.)         AngularGrid ... 4 (Lebedev-302)
Angular grid pruning method      GridPruning ... 4 (adaptive)
Weight generation scheme         WeightScheme... Becke
Basis function cutoff            BFCut       ... 1.0000e-11
Integration weight cutoff        WCut        ... 1.0000e-14
Angular grids for H and He will be reduced by one unit
Partially contracted basis set               ... on
Rotationally invariant grid construction     ... off

Total number of grid points                  ...    79407
Total number of batches                      ...     1250
Average number of points per batch           ...       63
Average number of grid points per atom       ...     4963
UseSFitting                                  ... on

Time for X-Grid setup             =    2.638 sec

--------------
SCF ITERATIONS
--------------
ITER       Energy         Delta-E        Max-DP      RMS-DP      [F,P]     Damp
               ***  Starting incremental Fock matrix formation  ***
  0   -307.3920443999   0.000000000000 0.15062609  0.00611176  0.4648840 0.7000
  1   -307.6932444896  -0.301200089625 0.08625462  0.00359280  0.2822627 0.7000
                               ***Turning on DIIS***
  2   -307.8573602880  -0.164115798418 0.04153961  0.00198077  0.1987559 0.7000
  3   -307.9690626275  -0.111702339521 0.02361476  0.00120140  0.1398385 0.7000
  4   -308.0482724193  -0.079209791841 0.04953752  0.00297678  0.0980486 0.0000
  5   -308.2382128611  -0.189940441727 0.00913304  0.00030831  0.0092668 0.0000
  6   -308.2384147517  -0.000201890582 0.00230484  0.00008737  0.0049541 0.0000
                      *** Initiating the SOSCF procedure ***
                           *** Shutting down DIIS ***
                      *** Re-Reading the Fockian *** 
                      *** Removing any level shift *** 
ITER      Energy       Delta-E        Grad      Rot      Max-DP    RMS-DP
  7   -308.23848685  -0.0000721031  0.000420  0.000420  0.001540  0.000060
               *** Restarting incremental Fock matrix formation ***
  8   -308.23849513  -0.0000082730  0.000067  0.000125  0.000244  0.000010
  9   -308.23849527  -0.0000001404  0.000031  0.000043  0.000081  0.000004
 10   -308.23849532  -0.0000000481  0.000007  0.000005  0.000020  0.000001
 11   -308.23849532  -0.0000000025  0.000006  0.000002  0.000011  0.000000
                  ***Gradient check signals convergence***
              ***Rediagonalizing the Fockian in SOSCF/NRSCF***

               *****************************************************
               *                     SUCCESS                       *
               *           SCF CONVERGED AFTER  12 CYCLES          *
               *****************************************************

Old exchange energy                            =    -17.135027078 Eh
New exchange energy                            =    -17.135028947 Eh
Exchange energy change after final integration =     -0.000001868 Eh
Total energy after final integration           =   -308.238497187 Eh
Final COS-X integration done in                =     2.766 sec

----------------
TOTAL SCF ENERGY
----------------

Total Energy       :         -308.23849719 Eh           -8387.59593 eV

Components:
Nuclear Repulsion  :          260.07971240 Eh            7077.12877 eV
Electronic Energy  :         -568.31820959 Eh          -15464.72469 eV
One Electron Energy:         -935.56767431 Eh          -25458.09068 eV
Two Electron Energy:          367.24946473 Eh            9993.36599 eV
Max COSX asymmetry :            0.00000095 Eh               0.00003 eV

Virial components:
Potential Energy   :         -614.26049349 Eh          -16714.87780 eV
Kinetic Energy     :          306.02199630 Eh            8327.28187 eV
Virial Ratio       :            2.00724295


DFT components:
N(Alpha)           :       25.000000350824 electrons
N(Beta)            :       25.000000350824 electrons
N(Total)           :       50.000000701647 electrons
E(X)               :      -22.764501189692 Eh       
E(C)               :       -2.178614444204 Eh       
E(XC)              :      -24.943115633896 Eh       
DFET-embed. en.    :        0.000000000000 Eh       

---------------
SCF CONVERGENCE
---------------

  Last Energy change         ...   -2.9581e-10  Tolerance :   1.0000e-08
  Last MAX-Density change    ...    1.3323e-15  Tolerance :   1.0000e-07
  Last RMS-Density change    ...    4.7596e-17  Tolerance :   5.0000e-09
  Last Orbital Gradient      ...    9.4587e-07  Tolerance :   1.0000e-05
  Last Orbital Rotation      ...    9.9038e-07  Tolerance :   1.0000e-05

             **** THE GBW FILE WAS UPDATED (pbeh-3c.gbw) ****
             **** DENSITY pbeh-3c.scfp WAS UPDATED ****
             **** ENERGY FILE WAS UPDATED (pbeh-3c.en.tmp) ****
             **** THE GBW FILE WAS UPDATED (pbeh-3c.gbw) ****
             **** DENSITY pbeh-3c.scfp WAS UPDATED ****
----------------
ORBITAL ENERGIES
----------------

  NO   OCC          E(Eh)            E(eV) 
   0   2.0000     -19.482037      -530.1332 
   1   2.0000     -19.481411      -530.1161 
   2   2.0000     -10.475277      -285.0468 
   3   2.0000     -10.473264      -284.9920 
   4   2.0000     -10.427158      -283.7374 
   5   2.0000     -10.426887      -283.7300 
   6   2.0000      -1.118087       -30.4247 
   7   2.0000      -1.115512       -30.3546 
   8   2.0000      -0.875306       -23.8183 
   9   2.0000      -0.790752       -21.5175 
  10   2.0000      -0.712306       -19.3828 
  11   2.0000      -0.637797       -17.3553 
  12   2.0000      -0.578612       -15.7448 
  13   2.0000      -0.556292       -15.1375 
  14   2.0000      -0.527315       -14.3490 
  15   2.0000      -0.508470       -13.8362 
  16   2.0000      -0.478155       -13.0113 
  17   2.0000      -0.452320       -12.3082 
  18   2.0000      -0.436913       -11.8890 
  19   2.0000      -0.400848       -10.9076 
  20   2.0000      -0.394016       -10.7217 
  21   2.0000      -0.380934       -10.3657 
  22   2.0000      -0.358109        -9.7447 
  23   2.0000      -0.326025        -8.8716 
  24   2.0000      -0.315573        -8.5872 
  25   0.0000       0.115686         3.1480 
  26   0.0000       0.142178         3.8689 
  27   0.0000       0.179810         4.8929 
  28   0.0000       0.186373         5.0715 
  29   0.0000       0.192229         5.2308 
  30   0.0000       0.208504         5.6737 
  31   0.0000       0.227161         6.1814 
  32   0.0000       0.237618         6.4659 
  33   0.0000       0.251682         6.8486 
  34   0.0000       0.254699         6.9307 
  35   0.0000       0.259788         7.0692 
  36   0.0000       0.260939         7.1005 
  37   0.0000       0.272717         7.4210 
  38   0.0000       0.277066         7.5393 
  39   0.0000       0.321370         8.7449 
  40   0.0000       0.500624        13.6227 
  41   0.0000       0.549365        14.9490 
  42   0.0000       0.555448        15.1145 
  43   0.0000       0.573184        15.5971 
  44   0.0000       0.588738        16.0204 
  45   0.0000       0.596547        16.2329 
  46   0.0000       0.623585        16.9686 
  47   0.0000       0.646096        17.5812 
  48   0.0000       0.684467        18.6253 
  49   0.0000       0.736914        20.0524 
  50   0.0000       0.807257        21.9666 
  51   0.0000       0.840707        22.8768 
  52   0.0000       0.908209        24.7136 
  53   0.0000       0.920649        25.0521 
  54   0.0000       0.954657        25.9775 
  55   0.0000       0.982393        26.7323 
  56   0.0000       0.997575        27.1454 
  57   0.0000       1.030872        28.0514 
  58   0.0000       1.040377        28.3101 
  59   0.0000       1.046153        28.4673 
  60   0.0000       1.063142        28.9296 
  61   0.0000       1.067384        29.0450 
  62   0.0000       1.085335        29.5335 
  63   0.0000       1.138860        30.9900 
  64   0.0000       1.151575        31.3360 
  65   0.0000       1.165286        31.7090 
  66   0.0000       1.197862        32.5955 
  67   0.0000       1.240042        33.7433 
  68   0.0000       1.295060        35.2404 
  69   0.0000       1.350397        36.7462 
  70   0.0000       1.437962        39.1289 
  71   0.0000       1.490090        40.5474 
  72   0.0000       1.521551        41.4035 
  73   0.0000       1.562870        42.5279 
  74   0.0000       1.605802        43.6961 
  75   0.0000       1.634788        44.4848 
  76   0.0000       1.771547        48.2062 
  77   0.0000       1.805643        49.1341 
  78   0.0000       1.848479        50.2997 
  79   0.0000       1.879807        51.1521 
  80   0.0000       1.881800        51.2064 
  81   0.0000       1.936023        52.6819 
  82   0.0000       1.950971        53.0886 
  83   0.0000       2.034311        55.3564 
  84   0.0000       2.041157        55.5427 
  85   0.0000       2.093238        56.9599 
  86   0.0000       2.116912        57.6041 
  87   0.0000       2.154761        58.6340 
  88   0.0000       2.210335        60.1463 
  89   0.0000       2.254589        61.3505 
  90   0.0000       2.333244        63.4908 
  91   0.0000       2.349177        63.9243 
  92   0.0000       2.428252        66.0761 
  93   0.0000       2.462331        67.0034 
  94   0.0000       2.469544        67.1997 
  95   0.0000       2.508767        68.2670 
  96   0.0000       2.521853        68.6231 
  97   0.0000       2.602299        70.8121 
  98   0.0000       2.646882        72.0253 
  99   0.0000       2.669941        72.6528 
 100   0.0000       2.755332        74.9764 
 101   0.0000       2.795692        76.0747 
 102   0.0000       2.912508        79.2534 
 103   0.0000       2.926460        79.6330 
 104   0.0000      13.583668       369.6304 
 105   0.0000      13.820583       376.0772 
 106   0.0000      13.998544       380.9198 
 107   0.0000      14.052991       382.4013 
 108   0.0000      25.496857       693.8048 
 109   0.0000      25.548359       695.2062 

                    ********************************
                    * MULLIKEN POPULATION ANALYSIS *
                    ********************************

-----------------------
MULLIKEN ATOMIC CHARGES
-----------------------
   0 C :   -0.178013
   1 H :    0.220898
   2 O :   -0.627646
   3 C :   -0.465843
   4 H :    0.238675
   5 H :    0.201983
   6 C :   -0.429317
   7 H :    0.214347
   8 H :    0.224231
   9 H :    0.408087
  10 H :    0.195138
  11 C :   -0.176588
  12 H :    0.193207
  13 H :    0.200426
  14 O :   -0.636453
  15 H :    0.416867
Sum of atomic charges:   -0.0000000

--------------------------------
MULLIKEN REDUCED ORBITAL CHARGES
--------------------------------
  0 C s       :     3.262570  s :     3.262570
      pz      :     0.802112  p :     2.847486
      px      :     1.002500
      py      :     1.042874
      dz2     :     0.018914  d :     0.067956
      dxz     :     0.020840
      dyz     :     0.007187
      dx2y2   :     0.006684
      dxy     :     0.014331
  1 H s       :     0.779102  s :     0.779102
  2 O s       :     3.816736  s :     3.816736
      pz      :     1.536009  p :     4.781820
      px      :     1.614802
      py      :     1.631010
      dz2     :     0.009544  d :     0.029090
      dxz     :     0.004172
      dyz     :     0.003834
      dx2y2   :     0.002045
      dxy     :     0.009495
  3 C s       :     3.330863  s :     3.330863
      pz      :     1.073872  p :     3.092406
      px      :     1.011392
      py      :     1.007142
      dz2     :     0.010963  d :     0.042574
      dxz     :     0.010502
      dyz     :     0.002852
      dx2y2   :     0.004953
      dxy     :     0.013305
  4 H s       :     0.761325  s :     0.761325
  5 H s       :     0.798017  s :     0.798017
  6 C s       :     3.322157  s :     3.322157
      pz      :     1.040193  p :     3.064548
      px      :     0.999506
      py      :     1.024849
      dz2     :     0.009772  d :     0.042612
      dxz     :     0.011178
      dyz     :     0.004185
      dx2y2   :     0.004958
      dxy     :     0.012520
  7 H s       :     0.785653  s :     0.785653
  8 H s       :     0.775769  s :     0.775769
  9 H s       :     0.591913  s :     0.591913
 10 H s       :     0.804862  s :     0.804862
 11 C s       :     3.261849  s :     3.261849
      pz      :     0.818214  p :     2.846669
      px      :     0.991693
      py      :     1.036763
      dz2     :     0.014053  d :     0.068070
      dxz     :     0.021476
      dyz     :     0.012289
      dx2y2   :     0.006773
      dxy     :     0.013478
 12 H s       :     0.806793  s :     0.806793
 13 H s       :     0.799574  s :     0.799574
 14 O s       :     3.823323  s :     3.823323
      pz      :     1.549167  p :     4.784299
      px      :     1.645825
      py      :     1.589308
      dz2     :     0.009459  d :     0.028830
      dxz     :     0.005517
      dyz     :     0.004505
      dx2y2   :     0.001902
      dxy     :     0.007448
 15 H s       :     0.583133  s :     0.583133


                     *******************************
                     * LOEWDIN POPULATION ANALYSIS *
                     *******************************

----------------------
LOEWDIN ATOMIC CHARGES
----------------------
   0 C :   -0.099298
   1 H :    0.121568
   2 O :   -0.417875
   3 C :   -0.268526
   4 H :    0.139957
   5 H :    0.117283
   6 C :   -0.253328
   7 H :    0.128984
   8 H :    0.129260
   9 H :    0.304938
  10 H :    0.101771
  11 C :   -0.095298
  12 H :    0.101578
  13 H :    0.104332
  14 O :   -0.423588
  15 H :    0.308243

-------------------------------
LOEWDIN REDUCED ORBITAL CHARGES
-------------------------------
  0 C s       :     2.908915  s :     2.908915
      pz      :     0.903781  p :     3.046753
      px      :     1.037896
      py      :     1.105076
      dz2     :     0.042058  d :     0.143631
      dxz     :     0.042668
      dyz     :     0.015607
      dx2y2   :     0.012966
      dxy     :     0.030333
  1 H s       :     0.878432  s :     0.878432
  2 O s       :     3.532171  s :     3.532171
      pz      :     1.579342  p :     4.834894
      px      :     1.620921
      py      :     1.634631
      dz2     :     0.017096  d :     0.050810
      dxz     :     0.009124
      dyz     :     0.007195
      dx2y2   :     0.003215
      dxy     :     0.014180
  3 C s       :     2.918904  s :     2.918904
      pz      :     1.100364  p :     3.262290
      px      :     1.077708
      py      :     1.084218
      dz2     :     0.021519  d :     0.087333
      dxz     :     0.021648
      dyz     :     0.006081
      dx2y2   :     0.010853
      dxy     :     0.027232
  4 H s       :     0.860043  s :     0.860043
  5 H s       :     0.882717  s :     0.882717
  6 C s       :     2.913470  s :     2.913470
      pz      :     1.090625  p :     3.252581
      px      :     1.075599
      py      :     1.086358
      dz2     :     0.019100  d :     0.087277
      dxz     :     0.023087
      dyz     :     0.009007
      dx2y2   :     0.010624
      dxy     :     0.025458
  7 H s       :     0.871016  s :     0.871016
  8 H s       :     0.870740  s :     0.870740
  9 H s       :     0.695062  s :     0.695062
 10 H s       :     0.898229  s :     0.898229
 11 C s       :     2.910101  s :     2.910101
      pz      :     0.915183  p :     3.042121
      px      :     1.036799
      py      :     1.090139
      dz2     :     0.031735  d :     0.143076
      dxz     :     0.044019
      dyz     :     0.025504
      dx2y2   :     0.013248
      dxy     :     0.028570
 12 H s       :     0.898422  s :     0.898422
 13 H s       :     0.895668  s :     0.895668
 14 O s       :     3.532890  s :     3.532890
      pz      :     1.592378  p :     4.840254
      px      :     1.655624
      py      :     1.592251
      dz2     :     0.016601  d :     0.050445
      dxz     :     0.010677
      dyz     :     0.008056
      dx2y2   :     0.003358
      dxy     :     0.011753
 15 H s       :     0.691757  s :     0.691757


                      *****************************
                      * MAYER POPULATION ANALYSIS *
                      *****************************

  NA   - Mulliken gross atomic population
  ZA   - Total nuclear charge
  QA   - Mulliken gross atomic charge
  VA   - Mayer's total valence
  BVA  - Mayer's bonded valence
  FA   - Mayer's free valence

  ATOM       NA         ZA         QA         VA         BVA        FA
  0 C      6.1780     6.0000    -0.1780     3.7644     3.7644    -0.0000
  1 H      0.7791     1.0000     0.2209     0.9062     0.9062    -0.0000
  2 O      8.6276     8.0000    -0.6276     1.8505     1.8505    -0.0000
  3 C      6.4658     6.0000    -0.4658     3.7214     3.7214    -0.0000
  4 H      0.7613     1.0000     0.2387     0.9046     0.9046     0.0000
  5 H      0.7980     1.0000     0.2020     0.9112     0.9112     0.0000
  6 C      6.4293     6.0000    -0.4293     3.7267     3.7267     0.0000
  7 H      0.7857     1.0000     0.2143     0.9142     0.9142     0.0000
  8 H      0.7758     1.0000     0.2242     0.9060     0.9060     0.0000
  9 H      0.5919     1.0000     0.4081     0.8067     0.8067    -0.0000
 10 H      0.8049     1.0000     0.1951     0.9059     0.9059    -0.0000
 11 C      6.1766     6.0000    -0.1766     3.7612     3.7612    -0.0000
 12 H      0.8068     1.0000     0.1932     0.9047     0.9047    -0.0000
 13 H      0.7996     1.0000     0.2004     0.9004     0.9004    -0.0000
 14 O      8.6365     8.0000    -0.6365     1.8272     1.8272    -0.0000
 15 H      0.5831     1.0000     0.4169     0.8016     0.8016     0.0000

  Mayer bond orders larger than 0.100000
B(  0-C ,  1-H ) :   0.9096 B(  0-C ,  2-O ) :   1.0047 B(  0-C ,  3-C ) :   0.9699 
B(  0-C , 10-H ) :   0.9150 B(  2-O ,  9-H ) :   0.7971 B(  3-C ,  4-H ) :   0.9020 
B(  3-C ,  5-H ) :   0.9251 B(  3-C ,  6-C ) :   0.9723 B(  6-C ,  7-H ) :   0.9158 
B(  6-C ,  8-H ) :   0.9182 B(  6-C , 11-C ) :   0.9876 B( 11-C , 12-H ) :   0.9107 
B( 11-C , 13-H ) :   0.8991 B( 11-C , 14-O ) :   0.9971 B( 14-O , 15-H ) :   0.7940 


-------
TIMINGS
-------

Total SCF time: 0 days 0 hours 1 min 4 sec 

Total time                  ....      64.069 sec
Sum of individual times     ....      59.758 sec  ( 93.3%)

Fock matrix formation       ....      49.432 sec  ( 77.2%)
  Split-RI-J                ....       5.114 sec  ( 10.3% of F)
  Chain of spheres X        ....      18.367 sec  ( 37.2% of F)
  XC integration            ....      14.008 sec  ( 28.3% of F)
    Basis function eval.    ....       2.807 sec  ( 20.0% of XC)
    Density eval.           ....       1.568 sec  ( 11.2% of XC)
    XC-Functional eval.     ....       1.282 sec  (  9.2% of XC)
    XC-Potential eval.      ....       0.908 sec  (  6.5% of XC)
Diagonalization             ....       0.880 sec  (  1.4%)
Density matrix formation    ....       0.102 sec  (  0.2%)
Population analysis         ....       1.020 sec  (  1.6%)
Initial guess               ....       0.013 sec  (  0.0%)
Orbital Transformation      ....       0.000 sec  (  0.0%)
Orbital Orthonormalization  ....       0.000 sec  (  0.0%)
DIIS solution               ....       2.113 sec  (  3.3%)
SOSCF solution              ....       0.589 sec  (  0.9%)
Grid generation             ....       5.609 sec  (  8.8%)

Maximum memory used throughout the entire SCF-calculation: 52.9 MB


-------------------------------------------------------------------------------
                          DFT DISPERSION CORRECTION                            
                                                                               
                              DFTD3 V3.1  Rev 1                                
                          USING Becke-Johnson damping                          
-------------------------------------------------------------------------------
The PBEh-3c composite method is recognized
Using three-body term ABC
Active option DFTDOPT                   ...         4   

molecular C6(AA) [au] = 1674.936358 


            DFT-D V3
 parameters
 s6 scaling factor         :     1.0000 
 a1 scaling factor         :     0.4860 
 s8 scaling factor         :     0.0000 
 a2 scaling factor         :     4.5000 
 Damping factor alpha9(ATM):    16.0000 
 ad hoc parameters k1-k3   :    16.0000     1.3333    -4.0000 

 Edisp/kcal,au: -4.282566815266  -0.006824703906 
 E6   /kcal   :  -4.312867845 
 E8   /kcal   :  -0.000000000 
 E6(ABC)      :   0.030301030 
 % E8         :   0.000000000 
 % E6(ABC)    :  -0.707543654 

-------------------------   ----------------
Dispersion correction           -0.006824704
-------------------------   ----------------

------------------   -----------------
gCP correction             0.037599717
------------------   -----------------

-------------------------   --------------------
FINAL SINGLE POINT ENERGY      -308.207722174450
-------------------------   --------------------


                            ***************************************
                            *     ORCA property calculations      *
                            ***************************************

                                    ---------------------
                                    Active property flags
                                    ---------------------
   (+) Dipole Moment


------------------------------------------------------------------------------
                       ORCA ELECTRIC PROPERTIES CALCULATION
------------------------------------------------------------------------------

Dipole Moment Calculation                       ... on
Quadrupole Moment Calculation                   ... off
Polarizability Calculation                      ... off
GBWName                                         ... pbeh-3c.gbw
Electron density                                ... pbeh-3c.scfp
The origin for moment calculation is the CENTER OF MASS  = (-0.000198, -0.032585 -0.001171)

-------------
DIPOLE MOMENT
-------------
                                X             Y             Z
Electronic contribution:     -0.05372      -1.47121      -0.14951
Nuclear contribution   :      0.00991       1.62924       0.05853
                        -----------------------------------------
Total Dipole Moment    :     -0.04381       0.15802      -0.09098
                        -----------------------------------------
Magnitude (a.u.)       :      0.18753
Magnitude (Debye)      :      0.47666



--------------------
Rotational spectrum 
--------------------
 
Rotational constants in cm-1:     0.194855     0.067116     0.066150 
Rotational constants in MHz :  5841.601766  2012.083913  1983.133113 

 Dipole components along the rotational axes: 
x,y,z [a.u.] :     0.043240     0.140574    -0.116347 
x,y,z [Debye]:     0.109906     0.357312    -0.295729 

 

Timings for individual modules:

Sum of individual times         ...       66.156 sec (=   1.103 min)
GTO integral calculation        ...        1.467 sec (=   0.024 min)   2.2 %
SCF iterations                  ...       64.689 sec (=   1.078 min)  97.8 %
                             ****ORCA TERMINATED NORMALLY****
TOTAL RUN TIME: 0 days 0 hours 1 minutes 9 seconds 18 msec
