
                                 *****************
                                 * O   R   C   A *
                                 *****************

                                            #,                                       
                                            ###                                      
                                            ####                                     
                                            #####                                    
                                            ######                                   
                                           ########,                                 
                                     ,,################,,,,,                         
                               ,,#################################,,                 
                          ,,##########################################,,             
                       ,#########################################, ''#####,          
                    ,#############################################,,   '####,        
                  ,##################################################,,,,####,       
                ,###########''''           ''''###############################       
              ,#####''   ,,,,##########,,,,          '''####'''          '####       
            ,##' ,,,,###########################,,,                        '##       
           ' ,,###''''                  '''############,,,                           
         ,,##''                                '''############,,,,        ,,,,,,###''
      ,#''                                            '''#######################'''  
     '                                                          ''''####''''         
             ,#######,   #######,   ,#######,      ##                                
            ,#'     '#,  ##    ##  ,#'     '#,    #''#        ######   ,####,        
            ##       ##  ##   ,#'  ##            #'  '#       #        #'  '#        
            ##       ##  #######   ##           ,######,      #####,   #    #        
            '#,     ,#'  ##    ##  '#,     ,#' ,#      #,         ##   #,  ,#        
             '#######'   ##     ##  '#######'  #'      '#     #####' # '####'        



                  #######################################################
                  #                        -***-                        #
                  #          Department of theory and spectroscopy      #
                  #    Directorship and core code : Frank Neese         #
                  #        Max Planck Institute fuer Kohlenforschung    #
                  #                Kaiser Wilhelm Platz 1               #
                  #                 D-45470 Muelheim/Ruhr               #
                  #                      Germany                        #
                  #                                                     #
                  #                  All rights reserved                #
                  #                        -***-                        #
                  #######################################################


                         Program Version 5.0.3 -  RELEASE  -


 With contributions from (in alphabetic order):
   Daniel Aravena         : Magnetic Suceptibility
   Michael Atanasov       : Ab Initio Ligand Field Theory (pilot matlab implementation)
   Alexander A. Auer      : GIAO ZORA, VPT2 properties, NMR spectrum
   Ute Becker             : Parallelization
   Giovanni Bistoni       : ED, misc. LED, open-shell LED, HFLD
   Martin Brehm           : Molecular dynamics
   Dmytro Bykov           : SCF Hessian
   Vijay G. Chilkuri      : MRCI spin determinant printing, contributions to CSF-ICE
   Dipayan Datta          : RHF DLPNO-CCSD density
   Achintya Kumar Dutta   : EOM-CC, STEOM-CC
   Dmitry Ganyushin       : Spin-Orbit,Spin-Spin,Magnetic field MRCI
   Miquel Garcia          : C-PCM and meta-GGA Hessian, CC/C-PCM, Gaussian charge scheme
   Yang Guo               : DLPNO-NEVPT2, F12-NEVPT2, CIM, IAO-localization
   Andreas Hansen         : Spin unrestricted coupled pair/coupled cluster methods
   Benjamin Helmich-Paris : MC-RPA, TRAH-SCF, COSX integrals
   Lee Huntington         : MR-EOM, pCC
   Robert Izsak           : Overlap fitted RIJCOSX, COSX-SCS-MP3, EOM
   Marcus Kettner         : VPT2
   Christian Kollmar      : KDIIS, OOCD, Brueckner-CCSD(T), CCSD density, CASPT2, CASPT2-K
   Simone Kossmann        : Meta GGA functionals, TD-DFT gradient, OOMP2, MP2 Hessian
   Martin Krupicka        : Initial AUTO-CI
   Lucas Lang             : DCDCAS
   Marvin Lechner         : AUTO-CI (C++ implementation), FIC-MRCC
   Dagmar Lenk            : GEPOL surface, SMD
   Dimitrios Liakos       : Extrapolation schemes; Compound Job, initial MDCI parallelization
   Dimitrios Manganas     : Further ROCIS development; embedding schemes
   Dimitrios Pantazis     : SARC Basis sets
   Anastasios Papadopoulos: AUTO-CI, single reference methods and gradients
   Taras Petrenko         : DFT Hessian,TD-DFT gradient, ASA, ECA, R-Raman, ABS, FL, XAS/XES, NRVS
   Peter Pinski           : DLPNO-MP2, DLPNO-MP2 Gradient
   Christoph Reimann      : Effective Core Potentials
   Marius Retegan         : Local ZFS, SOC
   Christoph Riplinger    : Optimizer, TS searches, QM/MM, DLPNO-CCSD(T), (RO)-DLPNO pert. Triples
   Tobias Risthaus        : Range-separated hybrids, TD-DFT gradient, RPA, STAB
   Michael Roemelt        : Original ROCIS implementation
   Masaaki Saitow         : Open-shell DLPNO-CCSD energy and density
   Barbara Sandhoefer     : DKH picture change effects
   Avijit Sen             : IP-ROCIS
   Kantharuban Sivalingam : CASSCF convergence, NEVPT2, FIC-MRCI
   Bernardo de Souza      : ESD, SOC TD-DFT
   Georgi Stoychev        : AutoAux, RI-MP2 NMR, DLPNO-MP2 response
   Willem Van den Heuvel  : Paramagnetic NMR
   Boris Wezisla          : Elementary symmetry handling
   Frank Wennmohs         : Technical directorship


 We gratefully acknowledge several colleagues who have allowed us to
 interface, adapt or use parts of their codes:
   Stefan Grimme, W. Hujo, H. Kruse, P. Pracht,  : VdW corrections, initial TS optimization,
                  C. Bannwarth, S. Ehlert          DFT functionals, gCP, sTDA/sTD-DF
   Ed Valeev, F. Pavosevic, A. Kumar             : LibInt (2-el integral package), F12 methods
   Garnet Chan, S. Sharma, J. Yang, R. Olivares  : DMRG
   Ulf Ekstrom                                   : XCFun DFT Library
   Mihaly Kallay                                 : mrcc  (arbitrary order and MRCC methods)
   Jiri Pittner, Ondrej Demel                    : Mk-CCSD
   Frank Weinhold                                : gennbo (NPA and NBO analysis)
   Christopher J. Cramer and Donald G. Truhlar   : smd solvation model
   Lars Goerigk                                  : TD-DFT with DH, B97 family of functionals
   V. Asgeirsson, H. Jonsson                     : NEB implementation
   FAccTs GmbH                                   : IRC, NEB, NEB-TS, DLPNO-Multilevel, CI-OPT
                                                   MM, QMMM, 2- and 3-layer-ONIOM, Crystal-QMMM,
                                                   LR-CPCM, SF, NACMEs, symmetry and pop. for TD-DFT,
                                                   nearIR, NL-DFT gradient (VV10), updates on ESD,
                                                   ML-optimized integration grids
   S Lehtola, MJT Oliveira, MAL Marques          : LibXC Library
   Liviu Ungur et al                             : ANISO software


 Your calculation uses the libint2 library for the computation of 2-el integrals
 For citations please refer to: http://libint.valeyev.net

 Your ORCA version has been built with support for libXC version: 5.1.0
 For citations please refer to: https://tddft.org/programs/libxc/

 This ORCA versions uses:
   CBLAS   interface :  Fast vector & matrix operations
   LAPACKE interface :  Fast linear algebra routines
   SCALAPACK package :  Parallel linear algebra routines
   Shared memory     :  Shared parallel matrices
   BLAS/LAPACK       :  OpenBLAS 0.3.15  USE64BITINT DYNAMIC_ARCH NO_AFFINITY Haswell SINGLE_THREADED
        Core in use  :  Haswell
   Copyright (c) 2011-2014, The OpenBLAS Project




***************************************
The coordinates will be read from file: 11a.xyz
***************************************


Your calculation utilizes the geometrical counterpoise correction gCP
Please cite in your paper:
H.Kruse, S. Grimme J.Chem.Phys., 136, (2012), 154101 
   

Your calculation utilizes the atom-pairwise dispersion correction
with the Becke-Johnson damping scheme (D3BJ)
Cite in your paper:
S.Grimme, S.Ehrlich, L.Goerigk, J Comput Chem, (2011), 32, 1456–1465 
S.Grimme, J.Antony, S.Ehrlich and H.Krieg, J.Chem.Phys., 132, (2010), 154104 
   

Your calculation employs the composite approach PBEh-3c.
Please cite in your paper:
S. Grimme, J. G. Brandenburg, C. Bannwarth, A. Hansen J.Chem.Phys., 143, (2015), 054107 
   

================================================================================

----- Orbital basis set information -----
Your calculation utilizes the basis: def2-mSVP

----- AuxJ basis set information -----
Your calculation utilizes the auxiliary basis: def2/J
   F. Weigend, Phys. Chem. Chem. Phys. 8, 1057 (2006).

================================================================================
                                        WARNINGS
                       Please study these warnings very carefully!
================================================================================


INFO   : the flag for use of the SHARK integral package has been found!

================================================================================
                                       INPUT FILE
================================================================================
NAME = pbeh-3c.inp
|  1> ! PBEh-3c def2/J TightSCF DefGrid3
|  2> 
|  3> %maxcore 60000
|  4> 
|  5> %pal
|  6> nprocs 4
|  7> end
|  8> 
|  9> *xyzfile 0 1 11a.xyz
| 10> 
| 11>                          ****END OF INPUT****
================================================================================

                       ****************************
                       * Single Point Calculation *
                       ****************************

---------------------------------
CARTESIAN COORDINATES (ANGSTROEM)
---------------------------------
  C     -1.207195   -0.696975    0.000000
  C     -1.207195    0.696975    0.000000
  C      0.000000   -1.393949    0.000000
  C      0.000000    1.393949    0.000000
  C      1.207195    0.696975    0.000000
  C      1.207195   -0.696975    0.000000
  H      0.000000   -2.474433    0.000000
  H      2.142922   -1.237216    0.000000
  H      2.142922    1.237216    0.000000
  H      0.000000    2.474433    0.000000
  H     -2.142922    1.237216    0.000000
  H     -2.142922   -1.237216    0.000000

----------------------------
CARTESIAN COORDINATES (A.U.)
----------------------------
  NO LB      ZA    FRAG     MASS         X           Y           Z
   0 C     6.0000    0    12.011   -2.281269   -1.317091    0.000000
   1 C     6.0000    0    12.011   -2.281269    1.317091    0.000000
   2 C     6.0000    0    12.011    0.000000   -2.634182    0.000000
   3 C     6.0000    0    12.011    0.000000    2.634182    0.000000
   4 C     6.0000    0    12.011    2.281269    1.317091    0.000000
   5 C     6.0000    0    12.011    2.281269   -1.317091    0.000000
   6 H     1.0000    0     1.008    0.000000   -4.676001    0.000000
   7 H     1.0000    0     1.008    4.049535   -2.338000    0.000000
   8 H     1.0000    0     1.008    4.049535    2.338000    0.000000
   9 H     1.0000    0     1.008    0.000000    4.676001    0.000000
  10 H     1.0000    0     1.008   -4.049535    2.338000    0.000000
  11 H     1.0000    0     1.008   -4.049535   -2.338000    0.000000

--------------------------------
INTERNAL COORDINATES (ANGSTROEM)
--------------------------------
 C      0   0   0     0.000000000000     0.00000000     0.00000000
 C      1   0   0     1.393949200000     0.00000000     0.00000000
 C      1   2   0     1.393949183732   120.00000039     0.00000000
 C      2   1   3     1.393949183732   120.00000039     0.00000000
 C      4   2   1     1.393949183732   119.99999923     0.00000000
 C      3   1   2     1.393949183732   119.99999923     0.00000000
 H      3   1   2     1.080483700000   120.00000039   180.00000000
 H      6   3   1     1.080483646789   120.00000105   180.00000085
 H      5   4   2     1.080483646789   120.00000105   180.00000085
 H      4   2   1     1.080483700000   120.00000039   180.00000000
 H      2   1   3     1.080483646789   119.99999857   180.00000000
 H      1   2   3     1.080483646789   119.99999857   180.00000000

---------------------------
INTERNAL COORDINATES (A.U.)
---------------------------
 C      0   0   0     0.000000000000     0.00000000     0.00000000
 C      1   0   0     2.634182232599     0.00000000     0.00000000
 C      1   2   0     2.634182201856   120.00000039     0.00000000
 C      2   1   3     2.634182201856   120.00000039     0.00000000
 C      4   2   1     2.634182201856   119.99999923     0.00000000
 C      3   1   2     2.634182201856   119.99999923     0.00000000
 H      3   1   2     2.041818285166   120.00000039   180.00000000
 H      6   3   1     2.041818184612   120.00000105   180.00000085
 H      5   4   2     2.041818184612   120.00000105   180.00000085
 H      4   2   1     2.041818285166   120.00000039   180.00000000
 H      2   1   3     2.041818184612   119.99999857   180.00000000
 H      1   2   3     2.041818184612   119.99999857   180.00000000

---------------------
BASIS SET INFORMATION
---------------------
There are 2 groups of distinct atoms

 Group   1 Type C   : 8s4p1d contracted to 4s2p1d pattern {5111/31/1}
 Group   2 Type H   : 4s contracted to 2s pattern {31}

Atom   0C    basis set group =>   1
Atom   1C    basis set group =>   1
Atom   2C    basis set group =>   1
Atom   3C    basis set group =>   1
Atom   4C    basis set group =>   1
Atom   5C    basis set group =>   1
Atom   6H    basis set group =>   2
Atom   7H    basis set group =>   2
Atom   8H    basis set group =>   2
Atom   9H    basis set group =>   2
Atom  10H    basis set group =>   2
Atom  11H    basis set group =>   2
---------------------------------
AUXILIARY/J BASIS SET INFORMATION
---------------------------------
There are 2 groups of distinct atoms

 Group   1 Type C   : 12s5p4d2f1g contracted to 6s4p3d1f1g pattern {711111/2111/211/2/1}
 Group   2 Type H   : 5s2p1d contracted to 3s1p1d pattern {311/2/1}

Atom   0C    basis set group =>   1
Atom   1C    basis set group =>   1
Atom   2C    basis set group =>   1
Atom   3C    basis set group =>   1
Atom   4C    basis set group =>   1
Atom   5C    basis set group =>   1
Atom   6H    basis set group =>   2
Atom   7H    basis set group =>   2
Atom   8H    basis set group =>   2
Atom   9H    basis set group =>   2
Atom  10H    basis set group =>   2
Atom  11H    basis set group =>   2


           ************************************************************
           *        Program running with 4 parallel MPI-processes     *
           *              working on a common directory               *
           ************************************************************
------------------------------------------------------------------------------
                           ORCA GTO INTEGRAL CALCULATION
                           -- RI-GTO INTEGRALS CHOSEN --
------------------------------------------------------------------------------
------------------------------------------------------------------------------
                   ___                                                        
                  /   \      - P O W E R E D   B Y -                         
                 /     \                                                     
                 |  |  |   _    _      __       _____    __    __             
                 |  |  |  | |  | |    /  \     |  _  \  |  |  /  |          
                  \  \/   | |  | |   /    \    | | | |  |  | /  /          
                 / \  \   | |__| |  /  /\  \   | |_| |  |  |/  /          
                |  |  |   |  __  | /  /__\  \  |    /   |      \           
                |  |  |   | |  | | |   __   |  |    \   |  |\   \          
                \     /   | |  | | |  |  |  |  | |\  \  |  | \   \       
                 \___/    |_|  |_| |__|  |__|  |_| \__\ |__|  \__/        
                                                                              
                      - O R C A' S   B I G   F R I E N D -                    
                                      &                                       
                       - I N T E G R A L  F E E D E R -                       
                                                                              
 v1 FN, 2020, v2 2021                                                         
------------------------------------------------------------------------------


Reading SHARK input file pbeh-3c.SHARKINP.tmp ... ok
----------------------
SHARK INTEGRAL PACKAGE
----------------------

Number of atoms                             ...     12
Number of basis functions                   ...    102
Number of shells                            ...     54
Maximum angular momentum                    ...      2
Integral batch strategy                     ... SHARK/LIBINT Hybrid
RI-J (if used) integral strategy            ... SPLIT-RIJ (Revised 2003 algorithm where possible)
Printlevel                                  ...      1
Contraction scheme used                     ... SEGMENTED contraction
Coulomb Range Separation                    ... NOT USED
Exchange Range Separation                   ... NOT USED
Finite Nucleus Model                        ... NOT USED
Auxiliary Coulomb fitting basis             ... AVAILABLE
   # of basis functions in Aux-J            ...    360
   # of shells in Aux-J                     ...    120
   Maximum angular momentum in Aux-J        ...      4
Auxiliary J/K fitting basis                 ... NOT available
Auxiliary Correlation fitting basis         ... NOT available
Auxiliary 'external' fitting basis          ... NOT available
Integral threshold                          ...     2.500000e-11
Primitive cut-off                           ...     2.500000e-12
Primitive pair pre-selection threshold      ...     2.500000e-12

Calculating pre-screening integrals         ... done (  0.2 sec) Dimension = 54
Organizing shell pair data                  ... done (  0.4 sec)
Shell pair information
Total number of shell pairs                 ...      1485
Shell pairs after pre-screening             ...      1428
Total number of primitive shell pairs       ...      5349
Primitive shell pairs kept                  ...      3915
          la=0 lb=0:    609 shell pairs
          la=1 lb=0:    432 shell pairs
          la=1 lb=1:     78 shell pairs
          la=2 lb=0:    216 shell pairs
          la=2 lb=1:     72 shell pairs
          la=2 lb=2:     21 shell pairs

Calculating one electron integrals          ... done (  0.0 sec)
Calculating RI/J V-Matrix + Cholesky decomp.... done (  1.0 sec)
Calculating Nuclear repulsion               ... done (  0.1 sec) ENN=    203.701786103242 Eh

SHARK setup successfully completed in   2.7 seconds

Maximum memory used throughout the entire GTOINT-calculation: 10.2 MB


           ************************************************************
           *        Program running with 4 parallel MPI-processes     *
           *              working on a common directory               *
           ************************************************************
-------------------------------------------------------------------------------
                                 ORCA SCF
-------------------------------------------------------------------------------

------------
SCF SETTINGS
------------
Hamiltonian:
 Density Functional     Method          .... DFT(GTOs)
 Exchange Functional    Exchange        .... PBE
   PBE kappa parameter   XKappa         ....  1.024500
   PBE mue parameter    XMuePBE         ....  0.123457
 Correlation Functional Correlation     .... PBE
   PBE beta parameter  CBetaPBE         ....  0.030000
 LDA part of GGA corr.  LDAOpt          .... PW91-LDA
 Gradients option       PostSCFGGA      .... off
 Hybrid DFT is turned on
   Fraction HF Exchange ScalHFX         ....  0.420000
   Scaling of DF-GGA-X  ScalDFX         ....  0.580000
   Scaling of DF-GGA-C  ScalDFC         ....  1.000000
   Scaling of DF-LDA-C  ScalLDAC        ....  1.000000
   Perturbative correction              ....  0.000000
   Density functional embedding theory  .... OFF
 RI-approximation to the Coulomb term is turned on
   Number of AuxJ basis functions       .... 360
   RIJ-ON(X) (HFX calculated with O(N)) .... on
   Number of AuxJ basis functions       .... 360
   RIJ-COSX (HFX calculated with COS-X)).... on


General Settings:
 Integral files         IntName         .... pbeh-3c
 Hartree-Fock type      HFTyp           .... RHF
 Total Charge           Charge          ....    0
 Multiplicity           Mult            ....    1
 Number of Electrons    NEL             ....   42
 Basis Dimension        Dim             ....  102
 Nuclear Repulsion      ENuc            ....    203.7017861032 Eh

Convergence Acceleration:
 DIIS                   CNVDIIS         .... on
   Start iteration      DIISMaxIt       ....    12
   Startup error        DIISStart       ....  0.200000
   # of expansion vecs  DIISMaxEq       ....     5
   Bias factor          DIISBfac        ....   1.050
   Max. coefficient     DIISMaxC        ....  10.000
 Trust-Rad. Augm. Hess. CNVTRAH         .... auto
   Auto Start mean grad. ratio tolernc. ....  1.125000
   Auto Start start iteration           ....    20
   Auto Start num. interpolation iter.  ....    10
   Max. Number of Micro iterations      ....    16
   Max. Number of Macro iterations      .... Maxiter - #DIIS iter
   Number of Davidson start vectors     ....     2
   Converg. threshold I  (grad. norm)   ....   1.000e-05
   Converg. threshold II (energy diff.) ....   1.000e-08
   Grad. Scal. Fac. for Micro threshold ....   0.100
   Minimum threshold for Micro iter.    ....   0.010
   NR start threshold (gradient norm)   ....   0.001
   Initial trust radius                 ....   0.400
   Minimum AH scaling param. (alpha)    ....   1.000
   Maximum AH scaling param. (alpha)    .... 1000.000
   Orbital update algorithm             .... Taylor
   White noise on init. David. guess    .... on
   Maximum white noise                  ....   0.010
   Quad. conv. algorithm                .... NR
   COSX micro iterations for RIJONX calc.... off
 SOSCF                  CNVSOSCF        .... on
   Start iteration      SOSCFMaxIt      ....   150
   Startup grad/error   SOSCFStart      ....  0.003300
 Level Shifting         CNVShift        .... on
   Level shift para.    LevelShift      ....    0.2500
   Turn off err/grad.   ShiftErr        ....    0.0010
 Zerner damping         CNVZerner       .... off
 Static damping         CNVDamp         .... on
   Fraction old density DampFac         ....    0.7000
   Max. Damping (<1)    DampMax         ....    0.9800
   Min. Damping (>=0)   DampMin         ....    0.0000
   Turn off err/grad.   DampErr         ....    0.1000
 Fernandez-Rico         CNVRico         .... off

SCF Procedure:
 Maximum # iterations   MaxIter         ....   125
 SCF integral mode      SCFMode         .... Direct
   Integral package                     .... SHARK and LIBINT hybrid scheme
 Reset frequency        DirectResetFreq ....    20
 Integral Threshold     Thresh          ....  2.500e-11 Eh
 Primitive CutOff       TCut            ....  2.500e-12 Eh

Convergence Tolerance:
 Convergence Check Mode ConvCheckMode   .... Total+1el-Energy
 Convergence forced     ConvForced      .... 0
 Energy Change          TolE            ....  1.000e-08 Eh
 1-El. energy change                    ....  1.000e-05 Eh
 Orbital Gradient       TolG            ....  1.000e-05
 Orbital Rotation angle TolX            ....  1.000e-05
 DIIS Error             TolErr          ....  5.000e-07


Diagonalization of the overlap matrix:
Smallest eigenvalue                        ... 4.881e-04
Time for diagonalization                   ...    0.002 sec
Threshold for overlap eigenvalues          ... 1.000e-08
Number of eigenvalues below threshold      ... 0
Time for construction of square roots      ...    0.167 sec
Total time needed                          ...    0.169 sec

--------------------------------
INITIAL GUESS: MINIMAL BASIS EHT
--------------------------------
The minimal basis has 36 functions
EHT matrix was diagonalized
Basis set overlap was calculated now projecting the orbitals
Using GuessMode=FMatrix for the initial guess
C*T matrix was formed
Effective Fockian was calculated
Effective Fockian was diagonalized
Initial density was built
                      ------------------
                      INITIAL GUESS DONE
                      ------------------
-------------------
DFT GRID GENERATION
-------------------

General Integration Accuracy     IntAcc      ... 4.959
Radial Grid Type                 RadialGrid  ... OptM3 with GC (2021)
Angular Grid (max. ang.)         AngularGrid ... 6 (Lebedev-590)
Angular grid pruning method      GridPruning ... 4 (adaptive)
Weight generation scheme         WeightScheme... Becke
Basis function cutoff            BFCut       ... 1.0000e-11
Integration weight cutoff        WCut        ... 1.0000e-14
Angular grids for H and He will be reduced by one unit
Partially contracted basis set               ... off
Rotationally invariant grid construction     ... off

Total number of grid points                  ...   138502
Total number of batches                      ...     2172
Average number of points per batch           ...       63
Average number of grid points per atom       ...    11542
Time for grid setup =    3.358 sec

--------------------
COSX GRID GENERATION
--------------------

GRIDX 1
-------
General Integration Accuracy     IntAcc      ... 4.020
Radial Grid Type                 RadialGrid  ... OptM3 with GC (2021)
Angular Grid (max. ang.)         AngularGrid ... 2 (Lebedev-110)
Angular grid pruning method      GridPruning ... 4 (adaptive)
Weight generation scheme         WeightScheme... Becke
Basis function cutoff            BFCut       ... 1.0000e-11
Integration weight cutoff        WCut        ... 1.0000e-14
Angular grids for H and He will be reduced by one unit
Partially contracted basis set               ... on
Rotationally invariant grid construction     ... off

Total number of grid points                  ...    15456
Total number of batches                      ...      246
Average number of points per batch           ...       62
Average number of grid points per atom       ...     1288
UseSFitting                                  ... on

GRIDX 2
-------
General Integration Accuracy     IntAcc      ... 4.338
Radial Grid Type                 RadialGrid  ... OptM3 with GC (2021)
Angular Grid (max. ang.)         AngularGrid ... 3 (Lebedev-194)
Angular grid pruning method      GridPruning ... 4 (adaptive)
Weight generation scheme         WeightScheme... Becke
Basis function cutoff            BFCut       ... 1.0000e-11
Integration weight cutoff        WCut        ... 1.0000e-14
Angular grids for H and He will be reduced by one unit
Partially contracted basis set               ... on
Rotationally invariant grid construction     ... off

Total number of grid points                  ...    34018
Total number of batches                      ...      536
Average number of points per batch           ...       63
Average number of grid points per atom       ...     2835
UseSFitting                                  ... on

GRIDX 3
-------
General Integration Accuracy     IntAcc      ... 4.871
Radial Grid Type                 RadialGrid  ... OptM3 with GC (2021)
Angular Grid (max. ang.)         AngularGrid ... 4 (Lebedev-302)
Angular grid pruning method      GridPruning ... 4 (adaptive)
Weight generation scheme         WeightScheme... Becke
Basis function cutoff            BFCut       ... 1.0000e-11
Integration weight cutoff        WCut        ... 1.0000e-14
Angular grids for H and He will be reduced by one unit
Partially contracted basis set               ... on
Rotationally invariant grid construction     ... off

Total number of grid points                  ...    65276
Total number of batches                      ...     1028
Average number of points per batch           ...       63
Average number of grid points per atom       ...     5440
UseSFitting                                  ... on

Time for X-Grid setup             =    4.003 sec

--------------
SCF ITERATIONS
--------------
ITER       Energy         Delta-E        Max-DP      RMS-DP      [F,P]     Damp
               ***  Starting incremental Fock matrix formation  ***
  0   -231.1700377940   0.000000000000 0.05784307  0.00413028  0.4071559 0.7000
  1   -231.3319470086  -0.161909214612 0.04163859  0.00304444  0.2873232 0.7000
  2   -231.4488788260  -0.116931817387 0.03048136  0.00224977  0.2016535 0.7000
                               ***Turning on DIIS***
  3   -231.5324941698  -0.083615343837 0.02250055  0.00166332  0.1415304 0.7000
  4   -231.5920099477  -0.059515777861 0.05892506  0.00436440  0.0993367 0.0000
  5   -231.7348735385  -0.142863590824 0.00409046  0.00026443  0.0044265 0.0000
                      *** Initiating the SOSCF procedure ***
                           *** Shutting down DIIS ***
                      *** Re-Reading the Fockian *** 
                      *** Removing any level shift *** 
ITER      Energy       Delta-E        Grad      Rot      Max-DP    RMS-DP
  6   -231.73506319  -0.0001896488  0.001621  0.001621  0.001611  0.000073
               *** Restarting incremental Fock matrix formation ***
  7   -231.73507543  -0.0000122476  0.000330  0.000374  0.000412  0.000024
  8   -231.73507685  -0.0000014104  0.000086  0.000127  0.000139  0.000006
  9   -231.73507689  -0.0000000412  0.000037  0.000027  0.000029  0.000002
 10   -231.73507690  -0.0000000173  0.000004  0.000004  0.000006  0.000000
                 **** Energy Check signals convergence ****
              ***Rediagonalizing the Fockian in SOSCF/NRSCF***

               *****************************************************
               *                     SUCCESS                       *
               *           SCF CONVERGED AFTER  11 CYCLES          *
               *****************************************************

Old exchange energy                            =    -13.946102450 Eh
New exchange energy                            =    -13.946086755 Eh
Exchange energy change after final integration =      0.000015695 Eh
Total energy after final integration           =   -231.735061205 Eh
Final COS-X integration done in                =     2.551 sec

----------------
TOTAL SCF ENERGY
----------------

Total Energy       :         -231.73506120 Eh           -6305.83160 eV

Components:
Nuclear Repulsion  :          203.70178610 Eh            5543.00740 eV
Electronic Energy  :         -435.43684731 Eh          -11848.83900 eV
One Electron Energy:         -714.38705201 Eh          -19439.45997 eV
Two Electron Energy:          278.95020471 Eh            7590.62097 eV
Max COSX asymmetry :            0.00000059 Eh               0.00002 eV

Virial components:
Potential Energy   :         -461.55910630 Eh          -12559.66180 eV
Kinetic Energy     :          229.82404509 Eh            6253.83021 eV
Virial Ratio       :            2.00831513


DFT components:
N(Alpha)           :       21.000000504391 electrons
N(Beta)            :       21.000000504391 electrons
N(Total)           :       42.000001008783 electrons
E(X)               :      -18.510385851206 Eh       
E(C)               :       -1.801132261678 Eh       
E(XC)              :      -20.311518112884 Eh       
DFET-embed. en.    :        0.000000000000 Eh       

---------------
SCF CONVERGENCE
---------------

  Last Energy change         ...    4.5230e-09  Tolerance :   1.0000e-08
  Last MAX-Density change    ...    1.0525e-15  Tolerance :   1.0000e-07
  Last RMS-Density change    ...    4.4433e-17  Tolerance :   5.0000e-09
  Last Orbital Gradient      ...    6.8627e-07  Tolerance :   1.0000e-05
  Last Orbital Rotation      ...    8.6643e-07  Tolerance :   1.0000e-05

             **** THE GBW FILE WAS UPDATED (pbeh-3c.gbw) ****
             **** DENSITY pbeh-3c.scfp WAS UPDATED ****
             **** ENERGY FILE WAS UPDATED (pbeh-3c.en.tmp) ****
             **** THE GBW FILE WAS UPDATED (pbeh-3c.gbw) ****
             **** DENSITY pbeh-3c.scfp WAS UPDATED ****
----------------
ORBITAL ENERGIES
----------------

  NO   OCC          E(Eh)            E(eV) 
   0   2.0000     -10.448625      -284.3216 
   1   2.0000     -10.448407      -284.3156 
   2   2.0000     -10.448405      -284.3155 
   3   2.0000     -10.447794      -284.2989 
   4   2.0000     -10.447792      -284.2989 
   5   2.0000     -10.447564      -284.2927 
   6   2.0000      -0.952047       -25.9065 
   7   2.0000      -0.835518       -22.7356 
   8   2.0000      -0.835517       -22.7356 
   9   2.0000      -0.679125       -18.4799 
  10   2.0000      -0.679125       -18.4799 
  11   2.0000      -0.592195       -16.1145 
  12   2.0000      -0.526288       -14.3210 
  13   2.0000      -0.508394       -13.8341 
  14   2.0000      -0.481919       -13.1137 
  15   2.0000      -0.481917       -13.1136 
  16   2.0000      -0.420803       -11.4506 
  17   2.0000      -0.398423       -10.8417 
  18   2.0000      -0.398422       -10.8416 
  19   2.0000      -0.292433        -7.9575 
  20   2.0000      -0.292430        -7.9574 
  21   0.0000       0.019174         0.5217 
  22   0.0000       0.019175         0.5218 
  23   0.0000       0.141221         3.8428 
  24   0.0000       0.196199         5.3388 
  25   0.0000       0.202171         5.5013 
  26   0.0000       0.202175         5.5014 
  27   0.0000       0.223606         6.0846 
  28   0.0000       0.223610         6.0847 
  29   0.0000       0.254613         6.9284 
  30   0.0000       0.327110         8.9011 
  31   0.0000       0.327121         8.9014 
  32   0.0000       0.328520         8.9395 
  33   0.0000       0.328525         8.9396 
  34   0.0000       0.449718        12.2374 
  35   0.0000       0.519826        14.1452 
  36   0.0000       0.565187        15.3795 
  37   0.0000       0.588379        16.0106 
  38   0.0000       0.588385        16.0108 
  39   0.0000       0.589227        16.0337 
  40   0.0000       0.618835        16.8394 
  41   0.0000       0.618835        16.8394 
  42   0.0000       0.634264        17.2592 
  43   0.0000       0.634268        17.2593 
  44   0.0000       0.640197        17.4207 
  45   0.0000       0.656865        17.8742 
  46   0.0000       0.656872        17.8744 
  47   0.0000       0.676839        18.4177 
  48   0.0000       0.732165        19.9232 
  49   0.0000       0.749308        20.3897 
  50   0.0000       0.943267        25.6676 
  51   0.0000       0.943273        25.6678 
  52   0.0000       0.968365        26.3505 
  53   0.0000       0.969255        26.3748 
  54   0.0000       0.969260        26.3749 
  55   0.0000       1.040483        28.3130 
  56   0.0000       1.040483        28.3130 
  57   0.0000       1.045066        28.4377 
  58   0.0000       1.088509        29.6198 
  59   0.0000       1.088520        29.6201 
  60   0.0000       1.096493        29.8371 
  61   0.0000       1.096509        29.8375 
  62   0.0000       1.171001        31.8646 
  63   0.0000       1.301493        35.4154 
  64   0.0000       1.301496        35.4155 
  65   0.0000       1.306279        35.5457 
  66   0.0000       1.441097        39.2142 
  67   0.0000       1.537551        41.8389 
  68   0.0000       1.537551        41.8389 
  69   0.0000       1.567157        42.6445 
  70   0.0000       1.567157        42.6445 
  71   0.0000       1.581102        43.0240 
  72   0.0000       1.815697        49.4076 
  73   0.0000       1.816873        49.4396 
  74   0.0000       1.903208        51.7889 
  75   0.0000       2.061679        56.1011 
  76   0.0000       2.061680        56.1012 
  77   0.0000       2.135813        58.1184 
  78   0.0000       2.135814        58.1184 
  79   0.0000       2.195480        59.7420 
  80   0.0000       2.195484        59.7422 
  81   0.0000       2.203629        59.9638 
  82   0.0000       2.203630        59.9638 
  83   0.0000       2.372591        64.5615 
  84   0.0000       2.373229        64.5788 
  85   0.0000       2.373229        64.5788 
  86   0.0000       2.583093        70.2895 
  87   0.0000       2.583098        70.2897 
  88   0.0000       2.730245        74.2938 
  89   0.0000       2.742644        74.6311 
  90   0.0000       2.742645        74.6312 
  91   0.0000       2.790874        75.9435 
  92   0.0000       2.790875        75.9436 
  93   0.0000       2.840457        77.2928 
  94   0.0000       3.059350        83.2492 
  95   0.0000       3.451664        93.9246 
  96   0.0000      13.215535       359.6130 
  97   0.0000      13.632279       370.9532 
  98   0.0000      13.632285       370.9533 
  99   0.0000      14.105009       383.8168 
 100   0.0000      14.105016       383.8170 
 101   0.0000      14.543311       395.7436 

                    ********************************
                    * MULLIKEN POPULATION ANALYSIS *
                    ********************************

-----------------------
MULLIKEN ATOMIC CHARGES
-----------------------
   0 C :   -0.219894
   1 C :   -0.219894
   2 C :   -0.219907
   3 C :   -0.219907
   4 C :   -0.219894
   5 C :   -0.219894
   6 H :    0.219907
   7 H :    0.219894
   8 H :    0.219894
   9 H :    0.219907
  10 H :    0.219894
  11 H :    0.219894
Sum of atomic charges:    0.0000000

--------------------------------
MULLIKEN REDUCED ORBITAL CHARGES
--------------------------------
  0 C s       :     3.245974  s :     3.245974
      pz      :     0.990912  p :     2.934328
      px      :     1.007844
      py      :     0.935572
      dz2     :     0.003848  d :     0.039591
      dxz     :     0.003396
      dyz     :     0.005689
      dx2y2   :     0.012178
      dxy     :     0.014480
  1 C s       :     3.245974  s :     3.245974
      pz      :     0.990912  p :     2.934328
      px      :     1.007844
      py      :     0.935572
      dz2     :     0.003848  d :     0.039591
      dxz     :     0.003396
      dyz     :     0.005689
      dx2y2   :     0.012178
      dxy     :     0.014480
  2 C s       :     3.245968  s :     3.245968
      pz      :     0.990922  p :     2.934348
      px      :     0.899418
      py      :     1.044008
      dz2     :     0.003848  d :     0.039591
      dxz     :     0.006835
      dyz     :     0.002250
      dx2y2   :     0.015631
      dxy     :     0.011027
  3 C s       :     3.245968  s :     3.245968
      pz      :     0.990922  p :     2.934348
      px      :     0.899418
      py      :     1.044008
      dz2     :     0.003848  d :     0.039591
      dxz     :     0.006835
      dyz     :     0.002250
      dx2y2   :     0.015631
      dxy     :     0.011027
  4 C s       :     3.245973  s :     3.245973
      pz      :     0.990912  p :     2.934329
      px      :     1.007845
      py      :     0.935573
      dz2     :     0.003848  d :     0.039591
      dxz     :     0.003396
      dyz     :     0.005689
      dx2y2   :     0.012178
      dxy     :     0.014480
  5 C s       :     3.245974  s :     3.245974
      pz      :     0.990912  p :     2.934329
      px      :     1.007844
      py      :     0.935573
      dz2     :     0.003848  d :     0.039591
      dxz     :     0.003396
      dyz     :     0.005689
      dx2y2   :     0.012178
      dxy     :     0.014480
  6 H s       :     0.780093  s :     0.780093
  7 H s       :     0.780106  s :     0.780106
  8 H s       :     0.780106  s :     0.780106
  9 H s       :     0.780093  s :     0.780093
 10 H s       :     0.780106  s :     0.780106
 11 H s       :     0.780106  s :     0.780106


                     *******************************
                     * LOEWDIN POPULATION ANALYSIS *
                     *******************************

----------------------
LOEWDIN ATOMIC CHARGES
----------------------
   0 C :   -0.135649
   1 C :   -0.135649
   2 C :   -0.135655
   3 C :   -0.135655
   4 C :   -0.135649
   5 C :   -0.135649
   6 H :    0.135651
   7 H :    0.135652
   8 H :    0.135652
   9 H :    0.135651
  10 H :    0.135652
  11 H :    0.135652

-------------------------------
LOEWDIN REDUCED ORBITAL CHARGES
-------------------------------
  0 C s       :     2.894255  s :     2.894255
      pz      :     0.982520  p :     3.151991
      px      :     1.081987
      py      :     1.087484
      dz2     :     0.006278  d :     0.089402
      dxz     :     0.006032
      dyz     :     0.011447
      dx2y2   :     0.030840
      dxy     :     0.034806
  1 C s       :     2.894255  s :     2.894255
      pz      :     0.982520  p :     3.151991
      px      :     1.081987
      py      :     1.087484
      dz2     :     0.006278  d :     0.089402
      dxz     :     0.006032
      dyz     :     0.011447
      dx2y2   :     0.030840
      dxy     :     0.034806
  2 C s       :     2.894256  s :     2.894256
      pz      :     0.982524  p :     3.151997
      px      :     1.090230
      py      :     1.079243
      dz2     :     0.006278  d :     0.089402
      dxz     :     0.014155
      dyz     :     0.003324
      dx2y2   :     0.036789
      dxy     :     0.028856
  3 C s       :     2.894256  s :     2.894256
      pz      :     0.982524  p :     3.151997
      px      :     1.090230
      py      :     1.079243
      dz2     :     0.006278  d :     0.089402
      dxz     :     0.014155
      dyz     :     0.003324
      dx2y2   :     0.036789
      dxy     :     0.028856
  4 C s       :     2.894255  s :     2.894255
      pz      :     0.982520  p :     3.151991
      px      :     1.081987
      py      :     1.087484
      dz2     :     0.006278  d :     0.089402
      dxz     :     0.006032
      dyz     :     0.011447
      dx2y2   :     0.030840
      dxy     :     0.034806
  5 C s       :     2.894255  s :     2.894255
      pz      :     0.982520  p :     3.151991
      px      :     1.081987
      py      :     1.087484
      dz2     :     0.006278  d :     0.089402
      dxz     :     0.006032
      dyz     :     0.011447
      dx2y2   :     0.030840
      dxy     :     0.034806
  6 H s       :     0.864349  s :     0.864349
  7 H s       :     0.864348  s :     0.864348
  8 H s       :     0.864348  s :     0.864348
  9 H s       :     0.864349  s :     0.864349
 10 H s       :     0.864348  s :     0.864348
 11 H s       :     0.864348  s :     0.864348


                      *****************************
                      * MAYER POPULATION ANALYSIS *
                      *****************************

  NA   - Mulliken gross atomic population
  ZA   - Total nuclear charge
  QA   - Mulliken gross atomic charge
  VA   - Mayer's total valence
  BVA  - Mayer's bonded valence
  FA   - Mayer's free valence

  ATOM       NA         ZA         QA         VA         BVA        FA
  0 C      6.2199     6.0000    -0.2199     3.8196     3.8196    -0.0000
  1 C      6.2199     6.0000    -0.2199     3.8196     3.8196    -0.0000
  2 C      6.2199     6.0000    -0.2199     3.8196     3.8196    -0.0000
  3 C      6.2199     6.0000    -0.2199     3.8196     3.8196     0.0000
  4 C      6.2199     6.0000    -0.2199     3.8196     3.8196     0.0000
  5 C      6.2199     6.0000    -0.2199     3.8196     3.8196    -0.0000
  6 H      0.7801     1.0000     0.2199     0.9116     0.9116    -0.0000
  7 H      0.7801     1.0000     0.2199     0.9116     0.9116    -0.0000
  8 H      0.7801     1.0000     0.2199     0.9116     0.9116     0.0000
  9 H      0.7801     1.0000     0.2199     0.9116     0.9116     0.0000
 10 H      0.7801     1.0000     0.2199     0.9116     0.9116    -0.0000
 11 H      0.7801     1.0000     0.2199     0.9116     0.9116    -0.0000

  Mayer bond orders larger than 0.100000
B(  0-C ,  1-C ) :   1.4267 B(  0-C ,  2-C ) :   1.4267 B(  0-C , 11-H ) :   0.9200 
B(  1-C ,  3-C ) :   1.4267 B(  1-C , 10-H ) :   0.9200 B(  2-C ,  5-C ) :   1.4267 
B(  2-C ,  6-H ) :   0.9200 B(  3-C ,  4-C ) :   1.4267 B(  3-C ,  9-H ) :   0.9200 
B(  4-C ,  5-C ) :   1.4267 B(  4-C ,  8-H ) :   0.9200 B(  5-C ,  7-H ) :   0.9200 


-------
TIMINGS
-------

Total SCF time: 0 days 0 hours 1 min 4 sec 

Total time                  ....      64.647 sec
Sum of individual times     ....      59.551 sec  ( 92.1%)

Fock matrix formation       ....      46.758 sec  ( 72.3%)
  Split-RI-J                ....       4.334 sec  (  9.3% of F)
  Chain of spheres X        ....      16.689 sec  ( 35.7% of F)
  XC integration            ....      13.345 sec  ( 28.5% of F)
    Basis function eval.    ....       2.317 sec  ( 17.4% of XC)
    Density eval.           ....       1.393 sec  ( 10.4% of XC)
    XC-Functional eval.     ....       1.248 sec  (  9.4% of XC)
    XC-Potential eval.      ....       0.889 sec  (  6.7% of XC)
Diagonalization             ....       0.821 sec  (  1.3%)
Density matrix formation    ....       0.117 sec  (  0.2%)
Population analysis         ....       0.693 sec  (  1.1%)
Initial guess               ....       0.013 sec  (  0.0%)
Orbital Transformation      ....       0.000 sec  (  0.0%)
Orbital Orthonormalization  ....       0.000 sec  (  0.0%)
DIIS solution               ....       3.192 sec  (  4.9%)
SOSCF solution              ....       0.598 sec  (  0.9%)
Grid generation             ....       7.360 sec  ( 11.4%)

Maximum memory used throughout the entire SCF-calculation: 50.8 MB


-------------------------------------------------------------------------------
                          DFT DISPERSION CORRECTION                            
                                                                               
                              DFTD3 V3.1  Rev 1                                
                          USING Becke-Johnson damping                          
-------------------------------------------------------------------------------
The PBEh-3c composite method is recognized
Using three-body term ABC
Active option DFTDOPT                   ...         4   

molecular C6(AA) [au] = 1659.125771 


            DFT-D V3
 parameters
 s6 scaling factor         :     1.0000 
 a1 scaling factor         :     0.4860 
 s8 scaling factor         :     0.0000 
 a2 scaling factor         :     4.5000 
 Damping factor alpha9(ATM):    16.0000 
 ad hoc parameters k1-k3   :    16.0000     1.3333    -4.0000 

 Edisp/kcal,au: -3.690709042353  -0.005881518608 
 E6   /kcal   :  -3.696649577 
 E8   /kcal   :  -0.000000000 
 E6(ABC)      :   0.005940534 
 % E8         :   0.000000000 
 % E6(ABC)    :  -0.160959164 

-------------------------   ----------------
Dispersion correction           -0.005881519
-------------------------   ----------------

------------------   -----------------
gCP correction             0.015159319
------------------   -----------------

-------------------------   --------------------
FINAL SINGLE POINT ENERGY      -231.725783403927
-------------------------   --------------------


                            ***************************************
                            *     ORCA property calculations      *
                            ***************************************

                                    ---------------------
                                    Active property flags
                                    ---------------------
   (+) Dipole Moment


------------------------------------------------------------------------------
                       ORCA ELECTRIC PROPERTIES CALCULATION
------------------------------------------------------------------------------

Dipole Moment Calculation                       ... on
Quadrupole Moment Calculation                   ... off
Polarizability Calculation                      ... off
GBWName                                         ... pbeh-3c.gbw
Electron density                                ... pbeh-3c.scfp
The origin for moment calculation is the CENTER OF MASS  = ( 0.000000,  0.000000  0.000000)

-------------
DIPOLE MOMENT
-------------
                                X             Y             Z
Electronic contribution:      0.00000      -0.00000       0.00000
Nuclear contribution   :      0.00000       0.00000       0.00000
                        -----------------------------------------
Total Dipole Moment    :      0.00000      -0.00000       0.00000
                        -----------------------------------------
Magnitude (a.u.)       :      0.00000
Magnitude (Debye)      :      0.00000



--------------------
Rotational spectrum 
--------------------
 
Rotational constants in cm-1:     0.190415     0.190415     0.095208 
Rotational constants in MHz :  5708.508255  5708.508089  2854.254086 

 Dipole components along the rotational axes: 
x,y,z [a.u.] :    -0.000000     0.000000     0.000000 
x,y,z [Debye]:    -0.000000     0.000000     0.000000 

 

Timings for individual modules:

Sum of individual times         ...       69.042 sec (=   1.151 min)
GTO integral calculation        ...        3.867 sec (=   0.064 min)   5.6 %
SCF iterations                  ...       65.175 sec (=   1.086 min)  94.4 %
                             ****ORCA TERMINATED NORMALLY****
TOTAL RUN TIME: 0 days 0 hours 1 minutes 11 seconds 760 msec
