
                                 *****************
                                 * O   R   C   A *
                                 *****************

                                            #,                                       
                                            ###                                      
                                            ####                                     
                                            #####                                    
                                            ######                                   
                                           ########,                                 
                                     ,,################,,,,,                         
                               ,,#################################,,                 
                          ,,##########################################,,             
                       ,#########################################, ''#####,          
                    ,#############################################,,   '####,        
                  ,##################################################,,,,####,       
                ,###########''''           ''''###############################       
              ,#####''   ,,,,##########,,,,          '''####'''          '####       
            ,##' ,,,,###########################,,,                        '##       
           ' ,,###''''                  '''############,,,                           
         ,,##''                                '''############,,,,        ,,,,,,###''
      ,#''                                            '''#######################'''  
     '                                                          ''''####''''         
             ,#######,   #######,   ,#######,      ##                                
            ,#'     '#,  ##    ##  ,#'     '#,    #''#        ######   ,####,        
            ##       ##  ##   ,#'  ##            #'  '#       #        #'  '#        
            ##       ##  #######   ##           ,######,      #####,   #    #        
            '#,     ,#'  ##    ##  '#,     ,#' ,#      #,         ##   #,  ,#        
             '#######'   ##     ##  '#######'  #'      '#     #####' # '####'        



                  #######################################################
                  #                        -***-                        #
                  #          Department of theory and spectroscopy      #
                  #    Directorship and core code : Frank Neese         #
                  #        Max Planck Institute fuer Kohlenforschung    #
                  #                Kaiser Wilhelm Platz 1               #
                  #                 D-45470 Muelheim/Ruhr               #
                  #                      Germany                        #
                  #                                                     #
                  #                  All rights reserved                #
                  #                        -***-                        #
                  #######################################################


                         Program Version 5.0.3 -  RELEASE  -


 With contributions from (in alphabetic order):
   Daniel Aravena         : Magnetic Suceptibility
   Michael Atanasov       : Ab Initio Ligand Field Theory (pilot matlab implementation)
   Alexander A. Auer      : GIAO ZORA, VPT2 properties, NMR spectrum
   Ute Becker             : Parallelization
   Giovanni Bistoni       : ED, misc. LED, open-shell LED, HFLD
   Martin Brehm           : Molecular dynamics
   Dmytro Bykov           : SCF Hessian
   Vijay G. Chilkuri      : MRCI spin determinant printing, contributions to CSF-ICE
   Dipayan Datta          : RHF DLPNO-CCSD density
   Achintya Kumar Dutta   : EOM-CC, STEOM-CC
   Dmitry Ganyushin       : Spin-Orbit,Spin-Spin,Magnetic field MRCI
   Miquel Garcia          : C-PCM and meta-GGA Hessian, CC/C-PCM, Gaussian charge scheme
   Yang Guo               : DLPNO-NEVPT2, F12-NEVPT2, CIM, IAO-localization
   Andreas Hansen         : Spin unrestricted coupled pair/coupled cluster methods
   Benjamin Helmich-Paris : MC-RPA, TRAH-SCF, COSX integrals
   Lee Huntington         : MR-EOM, pCC
   Robert Izsak           : Overlap fitted RIJCOSX, COSX-SCS-MP3, EOM
   Marcus Kettner         : VPT2
   Christian Kollmar      : KDIIS, OOCD, Brueckner-CCSD(T), CCSD density, CASPT2, CASPT2-K
   Simone Kossmann        : Meta GGA functionals, TD-DFT gradient, OOMP2, MP2 Hessian
   Martin Krupicka        : Initial AUTO-CI
   Lucas Lang             : DCDCAS
   Marvin Lechner         : AUTO-CI (C++ implementation), FIC-MRCC
   Dagmar Lenk            : GEPOL surface, SMD
   Dimitrios Liakos       : Extrapolation schemes; Compound Job, initial MDCI parallelization
   Dimitrios Manganas     : Further ROCIS development; embedding schemes
   Dimitrios Pantazis     : SARC Basis sets
   Anastasios Papadopoulos: AUTO-CI, single reference methods and gradients
   Taras Petrenko         : DFT Hessian,TD-DFT gradient, ASA, ECA, R-Raman, ABS, FL, XAS/XES, NRVS
   Peter Pinski           : DLPNO-MP2, DLPNO-MP2 Gradient
   Christoph Reimann      : Effective Core Potentials
   Marius Retegan         : Local ZFS, SOC
   Christoph Riplinger    : Optimizer, TS searches, QM/MM, DLPNO-CCSD(T), (RO)-DLPNO pert. Triples
   Tobias Risthaus        : Range-separated hybrids, TD-DFT gradient, RPA, STAB
   Michael Roemelt        : Original ROCIS implementation
   Masaaki Saitow         : Open-shell DLPNO-CCSD energy and density
   Barbara Sandhoefer     : DKH picture change effects
   Avijit Sen             : IP-ROCIS
   Kantharuban Sivalingam : CASSCF convergence, NEVPT2, FIC-MRCI
   Bernardo de Souza      : ESD, SOC TD-DFT
   Georgi Stoychev        : AutoAux, RI-MP2 NMR, DLPNO-MP2 response
   Willem Van den Heuvel  : Paramagnetic NMR
   Boris Wezisla          : Elementary symmetry handling
   Frank Wennmohs         : Technical directorship


 We gratefully acknowledge several colleagues who have allowed us to
 interface, adapt or use parts of their codes:
   Stefan Grimme, W. Hujo, H. Kruse, P. Pracht,  : VdW corrections, initial TS optimization,
                  C. Bannwarth, S. Ehlert          DFT functionals, gCP, sTDA/sTD-DF
   Ed Valeev, F. Pavosevic, A. Kumar             : LibInt (2-el integral package), F12 methods
   Garnet Chan, S. Sharma, J. Yang, R. Olivares  : DMRG
   Ulf Ekstrom                                   : XCFun DFT Library
   Mihaly Kallay                                 : mrcc  (arbitrary order and MRCC methods)
   Jiri Pittner, Ondrej Demel                    : Mk-CCSD
   Frank Weinhold                                : gennbo (NPA and NBO analysis)
   Christopher J. Cramer and Donald G. Truhlar   : smd solvation model
   Lars Goerigk                                  : TD-DFT with DH, B97 family of functionals
   V. Asgeirsson, H. Jonsson                     : NEB implementation
   FAccTs GmbH                                   : IRC, NEB, NEB-TS, DLPNO-Multilevel, CI-OPT
                                                   MM, QMMM, 2- and 3-layer-ONIOM, Crystal-QMMM,
                                                   LR-CPCM, SF, NACMEs, symmetry and pop. for TD-DFT,
                                                   nearIR, NL-DFT gradient (VV10), updates on ESD,
                                                   ML-optimized integration grids
   S Lehtola, MJT Oliveira, MAL Marques          : LibXC Library
   Liviu Ungur et al                             : ANISO software


 Your calculation uses the libint2 library for the computation of 2-el integrals
 For citations please refer to: http://libint.valeyev.net

 Your ORCA version has been built with support for libXC version: 5.1.0
 For citations please refer to: https://tddft.org/programs/libxc/

 This ORCA versions uses:
   CBLAS   interface :  Fast vector & matrix operations
   LAPACKE interface :  Fast linear algebra routines
   SCALAPACK package :  Parallel linear algebra routines
   Shared memory     :  Shared parallel matrices
   BLAS/LAPACK       :  OpenBLAS 0.3.15  USE64BITINT DYNAMIC_ARCH NO_AFFINITY Haswell SINGLE_THREADED
        Core in use  :  Haswell
   Copyright (c) 2011-2014, The OpenBLAS Project




***************************************
The coordinates will be read from file: c2h2f41.xyz
***************************************


Your calculation utilizes the geometrical counterpoise correction gCP
Please cite in your paper:
H.Kruse, S. Grimme J.Chem.Phys., 136, (2012), 154101 
   

Your calculation utilizes the atom-pairwise dispersion correction
with the Becke-Johnson damping scheme (D3BJ)
Cite in your paper:
S.Grimme, S.Ehrlich, L.Goerigk, J Comput Chem, (2011), 32, 1456–1465 
S.Grimme, J.Antony, S.Ehrlich and H.Krieg, J.Chem.Phys., 132, (2010), 154104 
   

Your calculation employs the composite approach PBEh-3c.
Please cite in your paper:
S. Grimme, J. G. Brandenburg, C. Bannwarth, A. Hansen J.Chem.Phys., 143, (2015), 054107 
   

================================================================================

----- Orbital basis set information -----
Your calculation utilizes the basis: def2-mSVP

----- AuxJ basis set information -----
Your calculation utilizes the auxiliary basis: def2/J
   F. Weigend, Phys. Chem. Chem. Phys. 8, 1057 (2006).

================================================================================
                                        WARNINGS
                       Please study these warnings very carefully!
================================================================================


INFO   : the flag for use of the SHARK integral package has been found!

================================================================================
                                       INPUT FILE
================================================================================
NAME = pbeh-3c.inp
|  1> ! PBEh-3c def2/J TightSCF DefGrid3
|  2> 
|  3> %maxcore 60000
|  4> 
|  5> %pal
|  6> nprocs 4
|  7> end
|  8> 
|  9> *xyzfile 1 1 c2h2f41.xyz
| 10> 
| 11>                          ****END OF INPUT****
================================================================================

                       ****************************
                       * Single Point Calculation *
                       ****************************

---------------------------------
CARTESIAN COORDINATES (ANGSTROEM)
---------------------------------
  C      0.142033   -0.089792   -1.044076
  H      0.185015    0.947793   -1.387857
  F      1.165761   -0.806296   -1.536502
  F     -1.014839   -0.663603   -1.347771
  C      0.382469   -0.255238    0.452821
  H      0.172270   -1.201567    0.957352
  F      1.295643    0.456612    0.966524
  F     -1.157321    0.586253    1.044959
  H     -1.171029    1.025838    1.894551

----------------------------
CARTESIAN COORDINATES (A.U.)
----------------------------
  NO LB      ZA    FRAG     MASS         X           Y           Z
   0 C     6.0000    0    12.011    0.268403   -0.169683   -1.973018
   1 H     1.0000    0     1.008    0.349627    1.791069   -2.622670
   2 F     9.0000    0    18.998    2.202970   -1.523678   -2.903569
   3 F     9.0000    0    18.998   -1.917768   -1.254029   -2.546919
   4 C     6.0000    0    12.011    0.722761   -0.482330    0.855707
   5 H     1.0000    0     1.008    0.325543   -2.270633    1.809132
   6 F     9.0000    0    18.998    2.448409    0.862872    1.826466
   7 F     9.0000    0    18.998   -2.187021    1.107858    1.974687
   8 H     1.0000    0     1.008   -2.212925    1.938553    3.580183

--------------------------------
INTERNAL COORDINATES (ANGSTROEM)
--------------------------------
 C      0   0   0     0.000000000000     0.00000000     0.00000000
 H      1   0   0     1.093899326051     0.00000000     0.00000000
 F      1   2   0     1.343086737374   111.15169039     0.00000000
 F      1   2   3     1.326590445311   111.87591857   235.96005269
 C      1   2   3     1.525084219238   113.90156779   112.62560308
 H      5   1   2     1.092828397692   121.11501949   167.66432728
 F      5   1   2     1.266691614479   116.79128234   319.06686967
 F      5   1   2     1.851941995801    97.66932459    67.14550586
 H      8   5   1     0.956676207477   120.30802659   208.46061666

---------------------------
INTERNAL COORDINATES (A.U.)
---------------------------
 C      0   0   0     0.000000000000     0.00000000     0.00000000
 H      1   0   0     2.067170144318     0.00000000     0.00000000
 F      1   2   0     2.538066107739   111.15169039     0.00000000
 F      1   2   3     2.506892633515   111.87591857   235.96005269
 C      1   2   3     2.881991505525   113.90156779   112.62560308
 H      5   1   2     2.065146383010   121.11501949   167.66432728
 F      5   1   2     2.393700247500   116.79128234   319.06686967
 F      5   1   2     3.499663187971    97.66932459    67.14550586
 H      8   5   1     1.807856030969   120.30802659   208.46061666

---------------------
BASIS SET INFORMATION
---------------------
There are 3 groups of distinct atoms

 Group   1 Type C   : 8s4p1d contracted to 4s2p1d pattern {5111/31/1}
 Group   2 Type H   : 4s contracted to 2s pattern {31}
 Group   3 Type F   : 8s4p1d contracted to 4s2p1d pattern {5111/31/1}

Atom   0C    basis set group =>   1
Atom   1H    basis set group =>   2
Atom   2F    basis set group =>   3
Atom   3F    basis set group =>   3
Atom   4C    basis set group =>   1
Atom   5H    basis set group =>   2
Atom   6F    basis set group =>   3
Atom   7F    basis set group =>   3
Atom   8H    basis set group =>   2
---------------------------------
AUXILIARY/J BASIS SET INFORMATION
---------------------------------
There are 3 groups of distinct atoms

 Group   1 Type C   : 12s5p4d2f1g contracted to 6s4p3d1f1g pattern {711111/2111/211/2/1}
 Group   2 Type H   : 5s2p1d contracted to 3s1p1d pattern {311/2/1}
 Group   3 Type F   : 12s5p4d2f1g contracted to 6s4p3d1f1g pattern {711111/2111/211/2/1}

Atom   0C    basis set group =>   1
Atom   1H    basis set group =>   2
Atom   2F    basis set group =>   3
Atom   3F    basis set group =>   3
Atom   4C    basis set group =>   1
Atom   5H    basis set group =>   2
Atom   6F    basis set group =>   3
Atom   7F    basis set group =>   3
Atom   8H    basis set group =>   2


           ************************************************************
           *        Program running with 4 parallel MPI-processes     *
           *              working on a common directory               *
           ************************************************************
------------------------------------------------------------------------------
                           ORCA GTO INTEGRAL CALCULATION
                           -- RI-GTO INTEGRALS CHOSEN --
------------------------------------------------------------------------------
------------------------------------------------------------------------------
                   ___                                                        
                  /   \      - P O W E R E D   B Y -                         
                 /     \                                                     
                 |  |  |   _    _      __       _____    __    __             
                 |  |  |  | |  | |    /  \     |  _  \  |  |  /  |          
                  \  \/   | |  | |   /    \    | | | |  |  | /  /          
                 / \  \   | |__| |  /  /\  \   | |_| |  |  |/  /          
                |  |  |   |  __  | /  /__\  \  |    /   |      \           
                |  |  |   | |  | | |   __   |  |    \   |  |\   \          
                \     /   | |  | | |  |  |  |  | |\  \  |  | \   \       
                 \___/    |_|  |_| |__|  |__|  |_| \__\ |__|  \__/        
                                                                              
                      - O R C A' S   B I G   F R I E N D -                    
                                      &                                       
                       - I N T E G R A L  F E E D E R -                       
                                                                              
 v1 FN, 2020, v2 2021                                                         
------------------------------------------------------------------------------


Reading SHARK input file pbeh-3c.SHARKINP.tmp ... ok
----------------------
SHARK INTEGRAL PACKAGE
----------------------

Number of atoms                             ...      9
Number of basis functions                   ...     96
Number of shells                            ...     48
Maximum angular momentum                    ...      2
Integral batch strategy                     ... SHARK/LIBINT Hybrid
RI-J (if used) integral strategy            ... SPLIT-RIJ (Revised 2003 algorithm where possible)
Printlevel                                  ...      1
Contraction scheme used                     ... SEGMENTED contraction
Coulomb Range Separation                    ... NOT USED
Exchange Range Separation                   ... NOT USED
Finite Nucleus Model                        ... NOT USED
Auxiliary Coulomb fitting basis             ... AVAILABLE
   # of basis functions in Aux-J            ...    327
   # of shells in Aux-J                     ...    105
   Maximum angular momentum in Aux-J        ...      4
Auxiliary J/K fitting basis                 ... NOT available
Auxiliary Correlation fitting basis         ... NOT available
Auxiliary 'external' fitting basis          ... NOT available
Integral threshold                          ...     2.500000e-11
Primitive cut-off                           ...     2.500000e-12
Primitive pair pre-selection threshold      ...     2.500000e-12

Calculating pre-screening integrals         ... done (  0.0 sec) Dimension = 48
Organizing shell pair data                  ... done (  0.3 sec)
Shell pair information
Total number of shell pairs                 ...      1176
Shell pairs after pre-screening             ...      1074
Total number of primitive shell pairs       ...      4182
Primitive shell pairs kept                  ...      2869
          la=0 lb=0:    385 shell pairs
          la=1 lb=0:    339 shell pairs
          la=1 lb=1:     77 shell pairs
          la=2 lb=0:    180 shell pairs
          la=2 lb=1:     72 shell pairs
          la=2 lb=2:     21 shell pairs

Calculating one electron integrals          ... done (  0.0 sec)
Calculating RI/J V-Matrix + Cholesky decomp.... done (  0.7 sec)
Calculating Nuclear repulsion               ... done (  0.1 sec) ENN=    270.494773222039 Eh

SHARK setup successfully completed in   2.1 seconds

Maximum memory used throughout the entire GTOINT-calculation: 9.8 MB


           ************************************************************
           *        Program running with 4 parallel MPI-processes     *
           *              working on a common directory               *
           ************************************************************
-------------------------------------------------------------------------------
                                 ORCA SCF
-------------------------------------------------------------------------------

------------
SCF SETTINGS
------------
Hamiltonian:
 Density Functional     Method          .... DFT(GTOs)
 Exchange Functional    Exchange        .... PBE
   PBE kappa parameter   XKappa         ....  1.024500
   PBE mue parameter    XMuePBE         ....  0.123457
 Correlation Functional Correlation     .... PBE
   PBE beta parameter  CBetaPBE         ....  0.030000
 LDA part of GGA corr.  LDAOpt          .... PW91-LDA
 Gradients option       PostSCFGGA      .... off
 Hybrid DFT is turned on
   Fraction HF Exchange ScalHFX         ....  0.420000
   Scaling of DF-GGA-X  ScalDFX         ....  0.580000
   Scaling of DF-GGA-C  ScalDFC         ....  1.000000
   Scaling of DF-LDA-C  ScalLDAC        ....  1.000000
   Perturbative correction              ....  0.000000
   Density functional embedding theory  .... OFF
 RI-approximation to the Coulomb term is turned on
   Number of AuxJ basis functions       .... 327
   RIJ-ON(X) (HFX calculated with O(N)) .... on
   Number of AuxJ basis functions       .... 327
   RIJ-COSX (HFX calculated with COS-X)).... on


General Settings:
 Integral files         IntName         .... pbeh-3c
 Hartree-Fock type      HFTyp           .... RHF
 Total Charge           Charge          ....    1
 Multiplicity           Mult            ....    1
 Number of Electrons    NEL             ....   50
 Basis Dimension        Dim             ....   96
 Nuclear Repulsion      ENuc            ....    270.4947732220 Eh

Convergence Acceleration:
 DIIS                   CNVDIIS         .... on
   Start iteration      DIISMaxIt       ....    12
   Startup error        DIISStart       ....  0.200000
   # of expansion vecs  DIISMaxEq       ....     5
   Bias factor          DIISBfac        ....   1.050
   Max. coefficient     DIISMaxC        ....  10.000
 Trust-Rad. Augm. Hess. CNVTRAH         .... auto
   Auto Start mean grad. ratio tolernc. ....  1.125000
   Auto Start start iteration           ....    20
   Auto Start num. interpolation iter.  ....    10
   Max. Number of Micro iterations      ....    16
   Max. Number of Macro iterations      .... Maxiter - #DIIS iter
   Number of Davidson start vectors     ....     2
   Converg. threshold I  (grad. norm)   ....   1.000e-05
   Converg. threshold II (energy diff.) ....   1.000e-08
   Grad. Scal. Fac. for Micro threshold ....   0.100
   Minimum threshold for Micro iter.    ....   0.010
   NR start threshold (gradient norm)   ....   0.001
   Initial trust radius                 ....   0.400
   Minimum AH scaling param. (alpha)    ....   1.000
   Maximum AH scaling param. (alpha)    .... 1000.000
   Orbital update algorithm             .... Taylor
   White noise on init. David. guess    .... on
   Maximum white noise                  ....   0.010
   Quad. conv. algorithm                .... NR
   COSX micro iterations for RIJONX calc.... off
 SOSCF                  CNVSOSCF        .... on
   Start iteration      SOSCFMaxIt      ....   150
   Startup grad/error   SOSCFStart      ....  0.003300
 Level Shifting         CNVShift        .... on
   Level shift para.    LevelShift      ....    0.2500
   Turn off err/grad.   ShiftErr        ....    0.0010
 Zerner damping         CNVZerner       .... off
 Static damping         CNVDamp         .... on
   Fraction old density DampFac         ....    0.7000
   Max. Damping (<1)    DampMax         ....    0.9800
   Min. Damping (>=0)   DampMin         ....    0.0000
   Turn off err/grad.   DampErr         ....    0.1000
 Fernandez-Rico         CNVRico         .... off

SCF Procedure:
 Maximum # iterations   MaxIter         ....   125
 SCF integral mode      SCFMode         .... Direct
   Integral package                     .... SHARK and LIBINT hybrid scheme
 Reset frequency        DirectResetFreq ....    20
 Integral Threshold     Thresh          ....  2.500e-11 Eh
 Primitive CutOff       TCut            ....  2.500e-12 Eh

Convergence Tolerance:
 Convergence Check Mode ConvCheckMode   .... Total+1el-Energy
 Convergence forced     ConvForced      .... 0
 Energy Change          TolE            ....  1.000e-08 Eh
 1-El. energy change                    ....  1.000e-05 Eh
 Orbital Gradient       TolG            ....  1.000e-05
 Orbital Rotation angle TolX            ....  1.000e-05
 DIIS Error             TolErr          ....  5.000e-07


Diagonalization of the overlap matrix:
Smallest eigenvalue                        ... 5.991e-03
Time for diagonalization                   ...    0.002 sec
Threshold for overlap eigenvalues          ... 1.000e-08
Number of eigenvalues below threshold      ... 0
Time for construction of square roots      ...    0.332 sec
Total time needed                          ...    0.334 sec

--------------------------------
INITIAL GUESS: MINIMAL BASIS EHT
--------------------------------
The minimal basis has 33 functions
EHT matrix was diagonalized
Basis set overlap was calculated now projecting the orbitals
Using GuessMode=FMatrix for the initial guess
C*T matrix was formed
Effective Fockian was calculated
Effective Fockian was diagonalized
Initial density was built
                      ------------------
                      INITIAL GUESS DONE
                      ------------------
-------------------
DFT GRID GENERATION
-------------------

General Integration Accuracy     IntAcc      ... 4.959
Radial Grid Type                 RadialGrid  ... OptM3 with GC (2021)
Angular Grid (max. ang.)         AngularGrid ... 6 (Lebedev-590)
Angular grid pruning method      GridPruning ... 4 (adaptive)
Weight generation scheme         WeightScheme... Becke
Basis function cutoff            BFCut       ... 1.0000e-11
Integration weight cutoff        WCut        ... 1.0000e-14
Angular grids for H and He will be reduced by one unit
Partially contracted basis set               ... off
Rotationally invariant grid construction     ... off

Total number of grid points                  ...   113589
Total number of batches                      ...     1781
Average number of points per batch           ...       63
Average number of grid points per atom       ...    12621
Time for grid setup =    3.737 sec

--------------------
COSX GRID GENERATION
--------------------

GRIDX 1
-------
General Integration Accuracy     IntAcc      ... 4.020
Radial Grid Type                 RadialGrid  ... OptM3 with GC (2021)
Angular Grid (max. ang.)         AngularGrid ... 2 (Lebedev-110)
Angular grid pruning method      GridPruning ... 4 (adaptive)
Weight generation scheme         WeightScheme... Becke
Basis function cutoff            BFCut       ... 1.0000e-11
Integration weight cutoff        WCut        ... 1.0000e-14
Angular grids for H and He will be reduced by one unit
Partially contracted basis set               ... on
Rotationally invariant grid construction     ... off

Total number of grid points                  ...    13454
Total number of batches                      ...      217
Average number of points per batch           ...       62
Average number of grid points per atom       ...     1495
UseSFitting                                  ... on

GRIDX 2
-------
General Integration Accuracy     IntAcc      ... 4.338
Radial Grid Type                 RadialGrid  ... OptM3 with GC (2021)
Angular Grid (max. ang.)         AngularGrid ... 3 (Lebedev-194)
Angular grid pruning method      GridPruning ... 4 (adaptive)
Weight generation scheme         WeightScheme... Becke
Basis function cutoff            BFCut       ... 1.0000e-11
Integration weight cutoff        WCut        ... 1.0000e-14
Angular grids for H and He will be reduced by one unit
Partially contracted basis set               ... on
Rotationally invariant grid construction     ... off

Total number of grid points                  ...    29810
Total number of batches                      ...      470
Average number of points per batch           ...       63
Average number of grid points per atom       ...     3312
UseSFitting                                  ... on

GRIDX 3
-------
General Integration Accuracy     IntAcc      ... 4.871
Radial Grid Type                 RadialGrid  ... OptM3 with GC (2021)
Angular Grid (max. ang.)         AngularGrid ... 4 (Lebedev-302)
Angular grid pruning method      GridPruning ... 4 (adaptive)
Weight generation scheme         WeightScheme... Becke
Basis function cutoff            BFCut       ... 1.0000e-11
Integration weight cutoff        WCut        ... 1.0000e-14
Angular grids for H and He will be reduced by one unit
Partially contracted basis set               ... on
Rotationally invariant grid construction     ... off

Total number of grid points                  ...    55334
Total number of batches                      ...      869
Average number of points per batch           ...       63
Average number of grid points per atom       ...     6148
UseSFitting                                  ... on

Time for X-Grid setup             =    3.785 sec

--------------
SCF ITERATIONS
--------------
ITER       Energy         Delta-E        Max-DP      RMS-DP      [F,P]     Damp
               ***  Starting incremental Fock matrix formation  ***
  0   -474.3013912677   0.000000000000 0.18389575  0.01012376  0.6259535 0.7000
  1   -475.0288339089  -0.727442641199 0.08695175  0.00541199  0.2754661 0.7000
                               ***Turning on DIIS***
  2   -475.3467310404  -0.317897131546 0.04748960  0.00269650  0.1953438 0.7000
  3   -475.5641343672  -0.217403326812 0.03474238  0.00163748  0.1370191 0.7000
  4   -475.7199255456  -0.155791178373 0.07753501  0.00383752  0.0952215 0.0000
  5   -476.0885721438  -0.368646598213 0.00920110  0.00039426  0.0138122 0.0000
  6   -476.0891171013  -0.000544957485 0.00253304  0.00010656  0.0055674 0.0000
                      *** Initiating the SOSCF procedure ***
                           *** Shutting down DIIS ***
                      *** Re-Reading the Fockian *** 
                      *** Removing any level shift *** 
ITER      Energy       Delta-E        Grad      Rot      Max-DP    RMS-DP
  7   -476.08921086  -0.0000937555  0.000584  0.000584  0.000825  0.000045
               *** Restarting incremental Fock matrix formation ***
  8   -476.08920744   0.0000034199  0.000151  0.000270  0.000584  0.000026
  9   -476.08920729   0.0000001479  0.000213  0.000200  0.000400  0.000013
 10   -476.08920853  -0.0000012396  0.000021  0.000033  0.000061  0.000003
 11   -476.08920854  -0.0000000110  0.000013  0.000008  0.000027  0.000001
                  ***Gradient check signals convergence***
              ***Rediagonalizing the Fockian in SOSCF/NRSCF***

               *****************************************************
               *                     SUCCESS                       *
               *           SCF CONVERGED AFTER  12 CYCLES          *
               *****************************************************

Old exchange energy                            =    -21.554166710 Eh
New exchange energy                            =    -21.554157135 Eh
Exchange energy change after final integration =      0.000009575 Eh
Total energy after final integration           =   -476.089198968 Eh
Final COS-X integration done in                =     2.392 sec

----------------
TOTAL SCF ENERGY
----------------

Total Energy       :         -476.08919897 Eh          -12955.04573 eV

Components:
Nuclear Repulsion  :          270.49477322 Eh            7360.53698 eV
Electronic Energy  :         -746.58397219 Eh          -20315.58271 eV
One Electron Energy:        -1186.81942653 Eh          -32294.99844 eV
Two Electron Energy:          440.23545434 Eh           11979.41573 eV
Max COSX asymmetry :            0.00000435 Eh               0.00012 eV

Virial components:
Potential Energy   :         -949.44949666 Eh          -25835.83427 eV
Kinetic Energy     :          473.36029769 Eh           12880.78855 eV
Virial Ratio       :            2.00576496


DFT components:
N(Alpha)           :       24.999998753592 electrons
N(Beta)            :       24.999998753592 electrons
N(Total)           :       49.999997507184 electrons
E(X)               :      -28.745256841561 Eh       
E(C)               :       -2.311595923340 Eh       
E(XC)              :      -31.056852764901 Eh       
DFET-embed. en.    :        0.000000000000 Eh       

---------------
SCF CONVERGENCE
---------------

  Last Energy change         ...   -3.7812e-09  Tolerance :   1.0000e-08
  Last MAX-Density change    ...    1.3323e-15  Tolerance :   1.0000e-07
  Last RMS-Density change    ...    5.8763e-17  Tolerance :   5.0000e-09
  Last Orbital Gradient      ...    1.4757e-06  Tolerance :   1.0000e-05
  Last Orbital Rotation      ...    3.4219e-06  Tolerance :   1.0000e-05

             **** THE GBW FILE WAS UPDATED (pbeh-3c.gbw) ****
             **** DENSITY pbeh-3c.scfp WAS UPDATED ****
             **** ENERGY FILE WAS UPDATED (pbeh-3c.en.tmp) ****
             **** THE GBW FILE WAS UPDATED (pbeh-3c.gbw) ****
             **** DENSITY pbeh-3c.scfp WAS UPDATED ****
----------------
ORBITAL ENERGIES
----------------

  NO   OCC          E(Eh)            E(eV) 
   0   2.0000     -25.440445      -692.2697 
   1   2.0000     -25.406672      -691.3507 
   2   2.0000     -25.333473      -689.3589 
   3   2.0000     -25.328995      -689.2370 
   4   2.0000     -10.909963      -296.8752 
   5   2.0000     -10.849824      -295.2387 
   6   2.0000      -1.704435       -46.3800 
   7   2.0000      -1.625024       -44.2191 
   8   2.0000      -1.612862       -43.8882 
   9   2.0000      -1.549352       -42.1600 
  10   2.0000      -1.120073       -30.4787 
  11   2.0000      -0.996784       -27.1239 
  12   2.0000      -0.940626       -25.5957 
  13   2.0000      -0.916597       -24.9419 
  14   2.0000      -0.894001       -24.3270 
  15   2.0000      -0.865284       -23.5456 
  16   2.0000      -0.839096       -22.8330 
  17   2.0000      -0.834681       -22.7128 
  18   2.0000      -0.793870       -21.6023 
  19   2.0000      -0.780168       -21.2295 
  20   2.0000      -0.754473       -20.5302 
  21   2.0000      -0.719894       -19.5893 
  22   2.0000      -0.696684       -18.9577 
  23   2.0000      -0.691052       -18.8045 
  24   2.0000      -0.636090       -17.3089 
  25   0.0000      -0.301841        -8.2135 
  26   0.0000      -0.125520        -3.4156 
  27   0.0000      -0.099771        -2.7149 
  28   0.0000      -0.059537        -1.6201 
  29   0.0000      -0.001857        -0.0505 
  30   0.0000       0.003541         0.0964 
  31   0.0000       0.050544         1.3754 
  32   0.0000       0.082018         2.2318 
  33   0.0000       0.269169         7.3245 
  34   0.0000       0.275891         7.5074 
  35   0.0000       0.290377         7.9016 
  36   0.0000       0.314402         8.5553 
  37   0.0000       0.338988         9.2243 
  38   0.0000       0.354051         9.6342 
  39   0.0000       0.509698        13.8696 
  40   0.0000       0.573398        15.6030 
  41   0.0000       0.658089        17.9075 
  42   0.0000       0.679190        18.4817 
  43   0.0000       0.703764        19.1504 
  44   0.0000       0.762368        20.7451 
  45   0.0000       0.794260        21.6129 
  46   0.0000       0.871258        23.7081 
  47   0.0000       0.882093        24.0030 
  48   0.0000       0.891177        24.2502 
  49   0.0000       0.918504        24.9938 
  50   0.0000       0.946629        25.7591 
  51   0.0000       0.968688        26.3593 
  52   0.0000       0.985330        26.8122 
  53   0.0000       0.991343        26.9758 
  54   0.0000       0.996296        27.1106 
  55   0.0000       1.006573        27.3902 
  56   0.0000       1.015288        27.6274 
  57   0.0000       1.035310        28.1722 
  58   0.0000       1.040704        28.3190 
  59   0.0000       1.060339        28.8533 
  60   0.0000       1.082809        29.4647 
  61   0.0000       1.099208        29.9110 
  62   0.0000       1.122205        30.5367 
  63   0.0000       1.159806        31.5599 
  64   0.0000       1.169397        31.8209 
  65   0.0000       1.218177        33.1483 
  66   0.0000       1.230862        33.4935 
  67   0.0000       1.272068        34.6147 
  68   0.0000       1.328820        36.1590 
  69   0.0000       1.457295        39.6550 
  70   0.0000       1.501572        40.8599 
  71   0.0000       1.574811        42.8528 
  72   0.0000       1.601703        43.5845 
  73   0.0000       1.690761        46.0080 
  74   0.0000       1.704750        46.3886 
  75   0.0000       1.739908        47.3453 
  76   0.0000       1.773818        48.2680 
  77   0.0000       1.898949        51.6730 
  78   0.0000       1.924398        52.3655 
  79   0.0000       2.006607        54.6025 
  80   0.0000       2.039815        55.5062 
  81   0.0000       2.205951        60.0270 
  82   0.0000       2.231369        60.7186 
  83   0.0000       2.348363        63.9022 
  84   0.0000       2.380690        64.7819 
  85   0.0000       2.414865        65.7118 
  86   0.0000       2.477858        67.4259 
  87   0.0000       2.746343        74.7318 
  88   0.0000       2.773149        75.4612 
  89   0.0000       2.893714        78.7420 
  90   0.0000      13.494350       367.1999 
  91   0.0000      13.853182       376.9642 
  92   0.0000      32.177359       875.5905 
  93   0.0000      32.471320       883.5895 
  94   0.0000      32.597284       887.0172 
  95   0.0000      32.767996       891.6625 

                    ********************************
                    * MULLIKEN POPULATION ANALYSIS *
                    ********************************

-----------------------
MULLIKEN ATOMIC CHARGES
-----------------------
   0 C :    0.499341
   1 H :    0.262143
   2 F :   -0.275745
   3 F :   -0.264325
   4 C :    0.370567
   5 H :    0.348357
   6 F :   -0.136573
   7 F :   -0.405513
   8 H :    0.601748
Sum of atomic charges:    1.0000000

--------------------------------
MULLIKEN REDUCED ORBITAL CHARGES
--------------------------------
  0 C s       :     3.066852  s :     3.066852
      pz      :     0.770152  p :     2.303577
      px      :     0.599864
      py      :     0.933562
      dz2     :     0.031338  d :     0.130229
      dxz     :     0.023093
      dyz     :     0.010056
      dx2y2   :     0.033337
      dxy     :     0.032404
  1 H s       :     0.737857  s :     0.737857
  2 F s       :     3.919489  s :     3.919489
      pz      :     1.845684  p :     5.323268
      px      :     1.679994
      py      :     1.797590
      dz2     :     0.006179  d :     0.032987
      dxz     :     0.007850
      dyz     :     0.004601
      dx2y2   :     0.005888
      dxy     :     0.008469
  3 F s       :     3.910952  s :     3.910952
      pz      :     1.894829  p :     5.321803
      px      :     1.592827
      py      :     1.834148
      dz2     :     0.004523  d :     0.031570
      dxz     :     0.008157
      dyz     :     0.002655
      dx2y2   :     0.007803
      dxy     :     0.008431
  4 C s       :     3.289438  s :     3.289438
      pz      :     0.915546  p :     2.248340
      px      :     0.492714
      py      :     0.840080
      dz2     :     0.019009  d :     0.091655
      dxz     :     0.017299
      dyz     :     0.017119
      dx2y2   :     0.018863
      dxy     :     0.019365
  5 H s       :     0.651643  s :     0.651643
  6 F s       :     3.898527  s :     3.898527
      pz      :     1.837735  p :     5.201859
      px      :     1.618391
      py      :     1.745733
      dz2     :     0.005620  d :     0.036186
      dxz     :     0.007542
      dyz     :     0.005101
      dx2y2   :     0.010319
      dxy     :     0.007604
  7 F s       :     3.932768  s :     3.932768
      pz      :     1.691546  p :     5.448445
      px      :     1.876994
      py      :     1.879904
      dz2     :     0.009140  d :     0.024301
      dxz     :     0.002901
      dyz     :     0.006507
      dx2y2   :     0.003398
      dxy     :     0.002355
  8 H s       :     0.398252  s :     0.398252


                     *******************************
                     * LOEWDIN POPULATION ANALYSIS *
                     *******************************

----------------------
LOEWDIN ATOMIC CHARGES
----------------------
   0 C :    0.234582
   1 H :    0.157040
   2 F :   -0.113425
   3 F :   -0.108725
   4 C :    0.352159
   5 H :    0.198252
   6 F :    0.020788
   7 F :   -0.205075
   8 H :    0.464403

-------------------------------
LOEWDIN REDUCED ORBITAL CHARGES
-------------------------------
  0 C s       :     2.841058  s :     2.841058
      pz      :     0.895017  p :     2.624062
      px      :     0.749100
      py      :     0.979945
      dz2     :     0.075292  d :     0.300297
      dxz     :     0.053128
      dyz     :     0.020445
      dx2y2   :     0.078281
      dxy     :     0.073150
  1 H s       :     0.842960  s :     0.842960
  2 F s       :     3.715241  s :     3.715241
      pz      :     1.826437  p :     5.311913
      px      :     1.680428
      py      :     1.805048
      dz2     :     0.016843  d :     0.086270
      dxz     :     0.018611
      dyz     :     0.010641
      dx2y2   :     0.018133
      dxy     :     0.022042
  3 F s       :     3.705686  s :     3.705686
      pz      :     1.872420  p :     5.317272
      px      :     1.607497
      py      :     1.837355
      dz2     :     0.012856  d :     0.085767
      dxz     :     0.020782
      dyz     :     0.005724
      dx2y2   :     0.021342
      dxy     :     0.025063
  4 C s       :     2.979040  s :     2.979040
      pz      :     0.985169  p :     2.470697
      px      :     0.605911
      py      :     0.879617
      dz2     :     0.044321  d :     0.198104
      dxz     :     0.038474
      dyz     :     0.032197
      dx2y2   :     0.040203
      dxy     :     0.042908
  5 H s       :     0.801748  s :     0.801748
  6 F s       :     3.673259  s :     3.673259
      pz      :     1.821068  p :     5.210538
      px      :     1.635490
      py      :     1.753980
      dz2     :     0.017181  d :     0.095415
      dxz     :     0.023677
      dyz     :     0.011594
      dx2y2   :     0.017180
      dxy     :     0.025783
  7 F s       :     3.761802  s :     3.761802
      pz      :     1.667327  p :     5.403428
      px      :     1.863377
      py      :     1.872724
      dz2     :     0.012536  d :     0.039844
      dxz     :     0.006053
      dyz     :     0.009188
      dx2y2   :     0.005513
      dxy     :     0.006554
  8 H s       :     0.535597  s :     0.535597


                      *****************************
                      * MAYER POPULATION ANALYSIS *
                      *****************************

  NA   - Mulliken gross atomic population
  ZA   - Total nuclear charge
  QA   - Mulliken gross atomic charge
  VA   - Mayer's total valence
  BVA  - Mayer's bonded valence
  FA   - Mayer's free valence

  ATOM       NA         ZA         QA         VA         BVA        FA
  0 C      5.5007     6.0000     0.4993     3.7848     3.7848     0.0000
  1 H      0.7379     1.0000     0.2621     0.8814     0.8814     0.0000
  2 F      9.2757     9.0000    -0.2757     1.1321     1.1321    -0.0000
  3 F      9.2643     9.0000    -0.2643     1.1381     1.1381    -0.0000
  4 C      5.6294     6.0000     0.3706     3.3383     3.3383    -0.0000
  5 H      0.6516     1.0000     0.3484     0.8422     0.8422    -0.0000
  6 F      9.1366     9.0000    -0.1366     1.3239     1.3239    -0.0000
  7 F      9.4055     9.0000    -0.4055     0.9929     0.9929    -0.0000
  8 H      0.3983     1.0000     0.6017     0.6321     0.6321    -0.0000

  Mayer bond orders larger than 0.100000
B(  0-C ,  1-H ) :   0.8633 B(  0-C ,  2-F ) :   0.9915 B(  0-C ,  3-F ) :   1.0428 
B(  0-C ,  4-C ) :   0.8527 B(  4-C ,  5-H ) :   0.8235 B(  4-C ,  6-F ) :   1.2375 
B(  4-C ,  7-F ) :   0.3141 B(  7-F ,  8-H ) :   0.6222 

-------
TIMINGS
-------

Total SCF time: 0 days 0 hours 1 min 10 sec 

Total time                  ....      70.923 sec
Sum of individual times     ....      63.846 sec  ( 90.0%)

Fock matrix formation       ....      49.832 sec  ( 70.3%)
  Split-RI-J                ....       6.458 sec  ( 13.0% of F)
  Chain of spheres X        ....      16.353 sec  ( 32.8% of F)
  XC integration            ....      11.984 sec  ( 24.0% of F)
    Basis function eval.    ....       2.165 sec  ( 18.1% of XC)
    Density eval.           ....       1.275 sec  ( 10.6% of XC)
    XC-Functional eval.     ....       1.360 sec  ( 11.3% of XC)
    XC-Potential eval.      ....       0.960 sec  (  8.0% of XC)
Diagonalization             ....       0.868 sec  (  1.2%)
Density matrix formation    ....       0.056 sec  (  0.1%)
Population analysis         ....       0.655 sec  (  0.9%)
Initial guess               ....       0.006 sec  (  0.0%)
Orbital Transformation      ....       0.000 sec  (  0.0%)
Orbital Orthonormalization  ....       0.000 sec  (  0.0%)
DIIS solution               ....       3.588 sec  (  5.1%)
SOSCF solution              ....       1.320 sec  (  1.9%)
Grid generation             ....       7.522 sec  ( 10.6%)

Maximum memory used throughout the entire SCF-calculation: 49.1 MB


-------------------------------------------------------------------------------
                          DFT DISPERSION CORRECTION                            
                                                                               
                              DFTD3 V3.1  Rev 1                                
                          USING Becke-Johnson damping                          
-------------------------------------------------------------------------------
The PBEh-3c composite method is recognized
Using three-body term ABC
Active option DFTDOPT                   ...         4   

molecular C6(AA) [au] = 594.141189 


            DFT-D V3
 parameters
 s6 scaling factor         :     1.0000 
 a1 scaling factor         :     0.4860 
 s8 scaling factor         :     0.0000 
 a2 scaling factor         :     4.5000 
 Damping factor alpha9(ATM):    16.0000 
 ad hoc parameters k1-k3   :    16.0000     1.3333    -4.0000 

 Edisp/kcal,au: -1.637712881571  -0.002609861324 
 E6   /kcal   :  -1.642966166 
 E8   /kcal   :  -0.000000000 
 E6(ABC)      :   0.005253284 
 % E8         :   0.000000000 
 % E6(ABC)    :  -0.320769561 

-------------------------   ----------------
Dispersion correction           -0.002609861
-------------------------   ----------------

------------------   -----------------
gCP correction             0.036411513
------------------   -----------------

-------------------------   --------------------
FINAL SINGLE POINT ENERGY      -476.055397316567
-------------------------   --------------------


                            ***************************************
                            *     ORCA property calculations      *
                            ***************************************

                                    ---------------------
                                    Active property flags
                                    ---------------------
   (+) Dipole Moment


------------------------------------------------------------------------------
                       ORCA ELECTRIC PROPERTIES CALCULATION
------------------------------------------------------------------------------

Dipole Moment Calculation                       ... on
Quadrupole Moment Calculation                   ... off
Polarizability Calculation                      ... off
GBWName                                         ... pbeh-3c.gbw
Electron density                                ... pbeh-3c.scfp
The origin for moment calculation is the CENTER OF MASS  = ( 0.201275, -0.210520 -0.407280)

-------------
DIPOLE MOMENT
-------------
                                X             Y             Z
Electronic contribution:      0.59495      -0.21017       0.03134
Nuclear contribution   :     -0.93647       1.02067       1.99004
                        -----------------------------------------
Total Dipole Moment    :     -0.34151       0.81050       2.02138
                        -----------------------------------------
Magnitude (a.u.)       :      2.20443
Magnitude (Debye)      :      5.60321



--------------------
Rotational spectrum 
--------------------
 
Rotational constants in cm-1:     0.150872     0.098739     0.063326 
Rotational constants in MHz :  4523.013925  2960.130978  1898.457241 

 Dipole components along the rotational axes: 
x,y,z [a.u.] :     2.201844    -0.026520     0.103335 
x,y,z [Debye]:     5.596642    -0.067409     0.262656 

 

Timings for individual modules:

Sum of individual times         ...       75.387 sec (=   1.256 min)
GTO integral calculation        ...        2.878 sec (=   0.048 min)   3.8 %
SCF iterations                  ...       72.509 sec (=   1.208 min)  96.2 %
                             ****ORCA TERMINATED NORMALLY****
TOTAL RUN TIME: 0 days 0 hours 1 minutes 17 seconds 535 msec
