
                                 *****************
                                 * O   R   C   A *
                                 *****************

                                            #,                                       
                                            ###                                      
                                            ####                                     
                                            #####                                    
                                            ######                                   
                                           ########,                                 
                                     ,,################,,,,,                         
                               ,,#################################,,                 
                          ,,##########################################,,             
                       ,#########################################, ''#####,          
                    ,#############################################,,   '####,        
                  ,##################################################,,,,####,       
                ,###########''''           ''''###############################       
              ,#####''   ,,,,##########,,,,          '''####'''          '####       
            ,##' ,,,,###########################,,,                        '##       
           ' ,,###''''                  '''############,,,                           
         ,,##''                                '''############,,,,        ,,,,,,###''
      ,#''                                            '''#######################'''  
     '                                                          ''''####''''         
             ,#######,   #######,   ,#######,      ##                                
            ,#'     '#,  ##    ##  ,#'     '#,    #''#        ######   ,####,        
            ##       ##  ##   ,#'  ##            #'  '#       #        #'  '#        
            ##       ##  #######   ##           ,######,      #####,   #    #        
            '#,     ,#'  ##    ##  '#,     ,#' ,#      #,         ##   #,  ,#        
             '#######'   ##     ##  '#######'  #'      '#     #####' # '####'        



                  #######################################################
                  #                        -***-                        #
                  #          Department of theory and spectroscopy      #
                  #    Directorship and core code : Frank Neese         #
                  #        Max Planck Institute fuer Kohlenforschung    #
                  #                Kaiser Wilhelm Platz 1               #
                  #                 D-45470 Muelheim/Ruhr               #
                  #                      Germany                        #
                  #                                                     #
                  #                  All rights reserved                #
                  #                        -***-                        #
                  #######################################################


                         Program Version 5.0.3 -  RELEASE  -


 With contributions from (in alphabetic order):
   Daniel Aravena         : Magnetic Suceptibility
   Michael Atanasov       : Ab Initio Ligand Field Theory (pilot matlab implementation)
   Alexander A. Auer      : GIAO ZORA, VPT2 properties, NMR spectrum
   Ute Becker             : Parallelization
   Giovanni Bistoni       : ED, misc. LED, open-shell LED, HFLD
   Martin Brehm           : Molecular dynamics
   Dmytro Bykov           : SCF Hessian
   Vijay G. Chilkuri      : MRCI spin determinant printing, contributions to CSF-ICE
   Dipayan Datta          : RHF DLPNO-CCSD density
   Achintya Kumar Dutta   : EOM-CC, STEOM-CC
   Dmitry Ganyushin       : Spin-Orbit,Spin-Spin,Magnetic field MRCI
   Miquel Garcia          : C-PCM and meta-GGA Hessian, CC/C-PCM, Gaussian charge scheme
   Yang Guo               : DLPNO-NEVPT2, F12-NEVPT2, CIM, IAO-localization
   Andreas Hansen         : Spin unrestricted coupled pair/coupled cluster methods
   Benjamin Helmich-Paris : MC-RPA, TRAH-SCF, COSX integrals
   Lee Huntington         : MR-EOM, pCC
   Robert Izsak           : Overlap fitted RIJCOSX, COSX-SCS-MP3, EOM
   Marcus Kettner         : VPT2
   Christian Kollmar      : KDIIS, OOCD, Brueckner-CCSD(T), CCSD density, CASPT2, CASPT2-K
   Simone Kossmann        : Meta GGA functionals, TD-DFT gradient, OOMP2, MP2 Hessian
   Martin Krupicka        : Initial AUTO-CI
   Lucas Lang             : DCDCAS
   Marvin Lechner         : AUTO-CI (C++ implementation), FIC-MRCC
   Dagmar Lenk            : GEPOL surface, SMD
   Dimitrios Liakos       : Extrapolation schemes; Compound Job, initial MDCI parallelization
   Dimitrios Manganas     : Further ROCIS development; embedding schemes
   Dimitrios Pantazis     : SARC Basis sets
   Anastasios Papadopoulos: AUTO-CI, single reference methods and gradients
   Taras Petrenko         : DFT Hessian,TD-DFT gradient, ASA, ECA, R-Raman, ABS, FL, XAS/XES, NRVS
   Peter Pinski           : DLPNO-MP2, DLPNO-MP2 Gradient
   Christoph Reimann      : Effective Core Potentials
   Marius Retegan         : Local ZFS, SOC
   Christoph Riplinger    : Optimizer, TS searches, QM/MM, DLPNO-CCSD(T), (RO)-DLPNO pert. Triples
   Tobias Risthaus        : Range-separated hybrids, TD-DFT gradient, RPA, STAB
   Michael Roemelt        : Original ROCIS implementation
   Masaaki Saitow         : Open-shell DLPNO-CCSD energy and density
   Barbara Sandhoefer     : DKH picture change effects
   Avijit Sen             : IP-ROCIS
   Kantharuban Sivalingam : CASSCF convergence, NEVPT2, FIC-MRCI
   Bernardo de Souza      : ESD, SOC TD-DFT
   Georgi Stoychev        : AutoAux, RI-MP2 NMR, DLPNO-MP2 response
   Willem Van den Heuvel  : Paramagnetic NMR
   Boris Wezisla          : Elementary symmetry handling
   Frank Wennmohs         : Technical directorship


 We gratefully acknowledge several colleagues who have allowed us to
 interface, adapt or use parts of their codes:
   Stefan Grimme, W. Hujo, H. Kruse, P. Pracht,  : VdW corrections, initial TS optimization,
                  C. Bannwarth, S. Ehlert          DFT functionals, gCP, sTDA/sTD-DF
   Ed Valeev, F. Pavosevic, A. Kumar             : LibInt (2-el integral package), F12 methods
   Garnet Chan, S. Sharma, J. Yang, R. Olivares  : DMRG
   Ulf Ekstrom                                   : XCFun DFT Library
   Mihaly Kallay                                 : mrcc  (arbitrary order and MRCC methods)
   Jiri Pittner, Ondrej Demel                    : Mk-CCSD
   Frank Weinhold                                : gennbo (NPA and NBO analysis)
   Christopher J. Cramer and Donald G. Truhlar   : smd solvation model
   Lars Goerigk                                  : TD-DFT with DH, B97 family of functionals
   V. Asgeirsson, H. Jonsson                     : NEB implementation
   FAccTs GmbH                                   : IRC, NEB, NEB-TS, DLPNO-Multilevel, CI-OPT
                                                   MM, QMMM, 2- and 3-layer-ONIOM, Crystal-QMMM,
                                                   LR-CPCM, SF, NACMEs, symmetry and pop. for TD-DFT,
                                                   nearIR, NL-DFT gradient (VV10), updates on ESD,
                                                   ML-optimized integration grids
   S Lehtola, MJT Oliveira, MAL Marques          : LibXC Library
   Liviu Ungur et al                             : ANISO software


 Your calculation uses the libint2 library for the computation of 2-el integrals
 For citations please refer to: http://libint.valeyev.net

 Your ORCA version has been built with support for libXC version: 5.1.0
 For citations please refer to: https://tddft.org/programs/libxc/

 This ORCA versions uses:
   CBLAS   interface :  Fast vector & matrix operations
   LAPACKE interface :  Fast linear algebra routines
   SCALAPACK package :  Parallel linear algebra routines
   Shared memory     :  Shared parallel matrices
   BLAS/LAPACK       :  OpenBLAS 0.3.15  USE64BITINT DYNAMIC_ARCH NO_AFFINITY Haswell SINGLE_THREADED
        Core in use  :  Haswell
   Copyright (c) 2011-2014, The OpenBLAS Project




***************************************
The coordinates will be read from file: ch3nh.xyz
***************************************


Your calculation utilizes the geometrical counterpoise correction gCP
Please cite in your paper:
H.Kruse, S. Grimme J.Chem.Phys., 136, (2012), 154101 
   

Your calculation utilizes the atom-pairwise dispersion correction
with the Becke-Johnson damping scheme (D3BJ)
Cite in your paper:
S.Grimme, S.Ehrlich, L.Goerigk, J Comput Chem, (2011), 32, 1456–1465 
S.Grimme, J.Antony, S.Ehrlich and H.Krieg, J.Chem.Phys., 132, (2010), 154104 
   

Your calculation employs the composite approach PBEh-3c.
Please cite in your paper:
S. Grimme, J. G. Brandenburg, C. Bannwarth, A. Hansen J.Chem.Phys., 143, (2015), 054107 
   

================================================================================

----- Orbital basis set information -----
Your calculation utilizes the basis: def2-mSVP

----- AuxJ basis set information -----
Your calculation utilizes the auxiliary basis: def2/J
   F. Weigend, Phys. Chem. Chem. Phys. 8, 1057 (2006).

================================================================================
                                        WARNINGS
                       Please study these warnings very carefully!
================================================================================


WARNING: your system is open-shell and RHF/RKS was chosen
  ===> : WILL SWITCH to UHF/UKS


INFO   : the flag for use of the SHARK integral package has been found!

================================================================================
                                       INPUT FILE
================================================================================
NAME = pbeh-3c.inp
|  1> ! PBEh-3c def2/J TightSCF DefGrid3
|  2> 
|  3> %maxcore 60000
|  4> 
|  5> %pal
|  6> nprocs 4
|  7> end
|  8> 
|  9> *xyzfile 0 2 ch3nh.xyz
| 10> 
| 11>                          ****END OF INPUT****
================================================================================

                       ****************************
                       * Single Point Calculation *
                       ****************************

---------------------------------
CARTESIAN COORDINATES (ANGSTROEM)
---------------------------------
  C     -0.692708    0.008758    0.000000
  H     -1.055208    0.557909    0.878215
  H     -1.133982   -0.986003    0.000000
  H     -1.055208    0.557909   -0.878215
  N      0.748581   -0.080360    0.000000
  H      1.096332    0.882576   -0.000000

----------------------------
CARTESIAN COORDINATES (A.U.)
----------------------------
  NO LB      ZA    FRAG     MASS         X           Y           Z
   0 C     6.0000    0    12.011   -1.309029    0.016551    0.000000
   1 H     1.0000    0     1.008   -1.994055    1.054294    1.659586
   2 H     1.0000    0     1.008   -2.142915   -1.863275    0.000000
   3 H     1.0000    0     1.008   -1.994055    1.054294   -1.659586
   4 N     7.0000    0    14.007    1.414613   -0.151859    0.000000
   5 H     1.0000    0     1.008    2.071768    1.667826   -0.000000

--------------------------------
INTERNAL COORDINATES (ANGSTROEM)
--------------------------------
 C      0   0   0     0.000000000000     0.00000000     0.00000000
 H      1   0   0     1.097375929239     0.00000000     0.00000000
 H      1   2   0     1.088242504648   108.87392283     0.00000000
 H      1   2   3     1.097375929239   106.31489754   117.14717360
 N      1   2   3     1.444041893085   111.13627790   238.20972413
 H      5   1   2     1.023805074116   106.31824835   300.90629851

---------------------------
INTERNAL COORDINATES (A.U.)
---------------------------
 C      0   0   0     0.000000000000     0.00000000     0.00000000
 H      1   0   0     2.073739972218     0.00000000     0.00000000
 H      1   2   0     2.056480301078   108.87392283     0.00000000
 H      1   2   3     2.073739972218   106.31489754   117.14717360
 N      1   2   3     2.728843703840   111.13627790   238.20972413
 H      5   1   2     1.934711204597   106.31824835   300.90629851

---------------------
BASIS SET INFORMATION
---------------------
There are 3 groups of distinct atoms

 Group   1 Type C   : 8s4p1d contracted to 4s2p1d pattern {5111/31/1}
 Group   2 Type H   : 4s contracted to 2s pattern {31}
 Group   3 Type N   : 8s4p1d contracted to 4s2p1d pattern {5111/31/1}

Atom   0C    basis set group =>   1
Atom   1H    basis set group =>   2
Atom   2H    basis set group =>   2
Atom   3H    basis set group =>   2
Atom   4N    basis set group =>   3
Atom   5H    basis set group =>   2
---------------------------------
AUXILIARY/J BASIS SET INFORMATION
---------------------------------
There are 3 groups of distinct atoms

 Group   1 Type C   : 12s5p4d2f1g contracted to 6s4p3d1f1g pattern {711111/2111/211/2/1}
 Group   2 Type H   : 5s2p1d contracted to 3s1p1d pattern {311/2/1}
 Group   3 Type N   : 12s5p4d2f1g contracted to 6s4p3d1f1g pattern {711111/2111/211/2/1}

Atom   0C    basis set group =>   1
Atom   1H    basis set group =>   2
Atom   2H    basis set group =>   2
Atom   3H    basis set group =>   2
Atom   4N    basis set group =>   3
Atom   5H    basis set group =>   2


           ************************************************************
           *        Program running with 4 parallel MPI-processes     *
           *              working on a common directory               *
           ************************************************************
------------------------------------------------------------------------------
                           ORCA GTO INTEGRAL CALCULATION
                           -- RI-GTO INTEGRALS CHOSEN --
------------------------------------------------------------------------------
------------------------------------------------------------------------------
                   ___                                                        
                  /   \      - P O W E R E D   B Y -                         
                 /     \                                                     
                 |  |  |   _    _      __       _____    __    __             
                 |  |  |  | |  | |    /  \     |  _  \  |  |  /  |          
                  \  \/   | |  | |   /    \    | | | |  |  | /  /          
                 / \  \   | |__| |  /  /\  \   | |_| |  |  |/  /          
                |  |  |   |  __  | /  /__\  \  |    /   |      \           
                |  |  |   | |  | | |   __   |  |    \   |  |\   \          
                \     /   | |  | | |  |  |  |  | |\  \  |  | \   \       
                 \___/    |_|  |_| |__|  |__|  |_| \__\ |__|  \__/        
                                                                              
                      - O R C A' S   B I G   F R I E N D -                    
                                      &                                       
                       - I N T E G R A L  F E E D E R -                       
                                                                              
 v1 FN, 2020, v2 2021                                                         
------------------------------------------------------------------------------


Reading SHARK input file pbeh-3c.SHARKINP.tmp ... ok
----------------------
SHARK INTEGRAL PACKAGE
----------------------

Number of atoms                             ...      6
Number of basis functions                   ...     38
Number of shells                            ...     22
Maximum angular momentum                    ...      2
Integral batch strategy                     ... SHARK/LIBINT Hybrid
RI-J (if used) integral strategy            ... SPLIT-RIJ (Revised 2003 algorithm where possible)
Printlevel                                  ...      1
Contraction scheme used                     ... SEGMENTED contraction
Coulomb Range Separation                    ... NOT USED
Exchange Range Separation                   ... NOT USED
Finite Nucleus Model                        ... NOT USED
Auxiliary Coulomb fitting basis             ... AVAILABLE
   # of basis functions in Aux-J            ...    142
   # of shells in Aux-J                     ...     50
   Maximum angular momentum in Aux-J        ...      4
Auxiliary J/K fitting basis                 ... NOT available
Auxiliary Correlation fitting basis         ... NOT available
Auxiliary 'external' fitting basis          ... NOT available
Integral threshold                          ...     2.500000e-11
Primitive cut-off                           ...     2.500000e-12
Primitive pair pre-selection threshold      ...     2.500000e-12

Calculating pre-screening integrals         ... done (  0.1 sec) Dimension = 22
Organizing shell pair data                  ... done (  0.3 sec)
Shell pair information
Total number of shell pairs                 ...       253
Shell pairs after pre-screening             ...       252
Total number of primitive shell pairs       ...       941
Primitive shell pairs kept                  ...       804
          la=0 lb=0:    135 shell pairs
          la=1 lb=0:     64 shell pairs
          la=1 lb=1:     10 shell pairs
          la=2 lb=0:     32 shell pairs
          la=2 lb=1:      8 shell pairs
          la=2 lb=2:      3 shell pairs

Calculating one electron integrals          ... done (  0.0 sec)
Calculating RI/J V-Matrix + Cholesky decomp.... done (  0.4 sec)
Calculating Nuclear repulsion               ... done (  0.1 sec) ENN=     36.129749089297 Eh

SHARK setup successfully completed in   2.0 seconds

Maximum memory used throughout the entire GTOINT-calculation: 8.9 MB


           ************************************************************
           *        Program running with 4 parallel MPI-processes     *
           *              working on a common directory               *
           ************************************************************
-------------------------------------------------------------------------------
                                 ORCA SCF
-------------------------------------------------------------------------------

------------
SCF SETTINGS
------------
Hamiltonian:
 Density Functional     Method          .... DFT(GTOs)
 Exchange Functional    Exchange        .... PBE
   PBE kappa parameter   XKappa         ....  1.024500
   PBE mue parameter    XMuePBE         ....  0.123457
 Correlation Functional Correlation     .... PBE
   PBE beta parameter  CBetaPBE         ....  0.030000
 LDA part of GGA corr.  LDAOpt          .... PW91-LDA
 Gradients option       PostSCFGGA      .... off
 Hybrid DFT is turned on
   Fraction HF Exchange ScalHFX         ....  0.420000
   Scaling of DF-GGA-X  ScalDFX         ....  0.580000
   Scaling of DF-GGA-C  ScalDFC         ....  1.000000
   Scaling of DF-LDA-C  ScalLDAC        ....  1.000000
   Perturbative correction              ....  0.000000
   Density functional embedding theory  .... OFF
 RI-approximation to the Coulomb term is turned on
   Number of AuxJ basis functions       .... 142
   RIJ-ON(X) (HFX calculated with O(N)) .... on
   Number of AuxJ basis functions       .... 142
   RIJ-COSX (HFX calculated with COS-X)).... on


General Settings:
 Integral files         IntName         .... pbeh-3c
 Hartree-Fock type      HFTyp           .... UHF
 Total Charge           Charge          ....    0
 Multiplicity           Mult            ....    2
 Number of Electrons    NEL             ....   17
 Basis Dimension        Dim             ....   38
 Nuclear Repulsion      ENuc            ....     36.1297490893 Eh

Convergence Acceleration:
 DIIS                   CNVDIIS         .... on
   Start iteration      DIISMaxIt       ....    12
   Startup error        DIISStart       ....  0.200000
   # of expansion vecs  DIISMaxEq       ....     5
   Bias factor          DIISBfac        ....   1.050
   Max. coefficient     DIISMaxC        ....  10.000
 Trust-Rad. Augm. Hess. CNVTRAH         .... auto
   Auto Start mean grad. ratio tolernc. ....  1.125000
   Auto Start start iteration           ....    20
   Auto Start num. interpolation iter.  ....    10
   Max. Number of Micro iterations      ....    16
   Max. Number of Macro iterations      .... Maxiter - #DIIS iter
   Number of Davidson start vectors     ....     2
   Converg. threshold I  (grad. norm)   ....   1.000e-05
   Converg. threshold II (energy diff.) ....   1.000e-08
   Grad. Scal. Fac. for Micro threshold ....   0.100
   Minimum threshold for Micro iter.    ....   0.010
   NR start threshold (gradient norm)   ....   0.001
   Initial trust radius                 ....   0.400
   Minimum AH scaling param. (alpha)    ....   1.000
   Maximum AH scaling param. (alpha)    .... 1000.000
   Orbital update algorithm             .... Taylor
   White noise on init. David. guess    .... on
   Maximum white noise                  ....   0.010
   Quad. conv. algorithm                .... NR
   COSX micro iterations for RIJONX calc.... off
 SOSCF                  CNVSOSCF        .... off
 Level Shifting         CNVShift        .... on
   Level shift para.    LevelShift      ....    0.2500
   Turn off err/grad.   ShiftErr        ....    0.0010
 Zerner damping         CNVZerner       .... off
 Static damping         CNVDamp         .... on
   Fraction old density DampFac         ....    0.7000
   Max. Damping (<1)    DampMax         ....    0.9800
   Min. Damping (>=0)   DampMin         ....    0.0000
   Turn off err/grad.   DampErr         ....    0.1000
 Fernandez-Rico         CNVRico         .... off

SCF Procedure:
 Maximum # iterations   MaxIter         ....   125
 SCF integral mode      SCFMode         .... Direct
   Integral package                     .... SHARK and LIBINT hybrid scheme
 Reset frequency        DirectResetFreq ....    20
 Integral Threshold     Thresh          ....  2.500e-11 Eh
 Primitive CutOff       TCut            ....  2.500e-12 Eh

Convergence Tolerance:
 Convergence Check Mode ConvCheckMode   .... Total+1el-Energy
 Convergence forced     ConvForced      .... 0
 Energy Change          TolE            ....  1.000e-08 Eh
 1-El. energy change                    ....  1.000e-05 Eh
 DIIS Error             TolErr          ....  5.000e-07


Diagonalization of the overlap matrix:
Smallest eigenvalue                        ... 1.352e-02
Time for diagonalization                   ...    0.001 sec
Threshold for overlap eigenvalues          ... 1.000e-08
Number of eigenvalues below threshold      ... 0
Time for construction of square roots      ...    0.149 sec
Total time needed                          ...    0.153 sec

--------------------------------
INITIAL GUESS: MINIMAL BASIS EHT
--------------------------------
The minimal basis has 14 functions
EHT matrix was diagonalized
Basis set overlap was calculated now projecting the orbitals
Using GuessMode=FMatrix for the initial guess
C*T matrix was formed
Effective Fockian was calculated
Effective Fockian was diagonalized
Initial density was built
                      ------------------
                      INITIAL GUESS DONE
                      ------------------
-------------------
DFT GRID GENERATION
-------------------

General Integration Accuracy     IntAcc      ... 4.959
Radial Grid Type                 RadialGrid  ... OptM3 with GC (2021)
Angular Grid (max. ang.)         AngularGrid ... 6 (Lebedev-590)
Angular grid pruning method      GridPruning ... 4 (adaptive)
Weight generation scheme         WeightScheme... Becke
Basis function cutoff            BFCut       ... 1.0000e-11
Integration weight cutoff        WCut        ... 1.0000e-14
Angular grids for H and He will be reduced by one unit
Partially contracted basis set               ... off
Rotationally invariant grid construction     ... off

Total number of grid points                  ...    64910
Total number of batches                      ...     1019
Average number of points per batch           ...       63
Average number of grid points per atom       ...    10818
Time for grid setup =    1.311 sec

--------------------
COSX GRID GENERATION
--------------------

GRIDX 1
-------
General Integration Accuracy     IntAcc      ... 4.020
Radial Grid Type                 RadialGrid  ... OptM3 with GC (2021)
Angular Grid (max. ang.)         AngularGrid ... 2 (Lebedev-110)
Angular grid pruning method      GridPruning ... 4 (adaptive)
Weight generation scheme         WeightScheme... Becke
Basis function cutoff            BFCut       ... 1.0000e-11
Integration weight cutoff        WCut        ... 1.0000e-14
Angular grids for H and He will be reduced by one unit
Partially contracted basis set               ... on
Rotationally invariant grid construction     ... off

Total number of grid points                  ...     6926
Total number of batches                      ...      111
Average number of points per batch           ...       62
Average number of grid points per atom       ...     1154
UseSFitting                                  ... on

GRIDX 2
-------
General Integration Accuracy     IntAcc      ... 4.338
Radial Grid Type                 RadialGrid  ... OptM3 with GC (2021)
Angular Grid (max. ang.)         AngularGrid ... 3 (Lebedev-194)
Angular grid pruning method      GridPruning ... 4 (adaptive)
Weight generation scheme         WeightScheme... Becke
Basis function cutoff            BFCut       ... 1.0000e-11
Integration weight cutoff        WCut        ... 1.0000e-14
Angular grids for H and He will be reduced by one unit
Partially contracted basis set               ... on
Rotationally invariant grid construction     ... off

Total number of grid points                  ...    15226
Total number of batches                      ...      241
Average number of points per batch           ...       63
Average number of grid points per atom       ...     2538
UseSFitting                                  ... on

GRIDX 3
-------
General Integration Accuracy     IntAcc      ... 4.871
Radial Grid Type                 RadialGrid  ... OptM3 with GC (2021)
Angular Grid (max. ang.)         AngularGrid ... 4 (Lebedev-302)
Angular grid pruning method      GridPruning ... 4 (adaptive)
Weight generation scheme         WeightScheme... Becke
Basis function cutoff            BFCut       ... 1.0000e-11
Integration weight cutoff        WCut        ... 1.0000e-14
Angular grids for H and He will be reduced by one unit
Partially contracted basis set               ... on
Rotationally invariant grid construction     ... off

Total number of grid points                  ...    30631
Total number of batches                      ...      481
Average number of points per batch           ...       63
Average number of grid points per atom       ...     5105
UseSFitting                                  ... on

Time for X-Grid setup             =    2.588 sec

--------------
SCF ITERATIONS
--------------
ITER       Energy         Delta-E        Max-DP      RMS-DP      [F,P]     Damp
               ***  Starting incremental Fock matrix formation  ***
  0    -94.5909899800   0.000000000000 0.08885991  0.00496647  0.2732642 0.7000
  1    -94.7356638575  -0.144673877446 0.04851793  0.00311679  0.1572202 0.7000
                               ***Turning on DIIS***
  2    -94.8115469410  -0.075883083538 0.07542031  0.00575670  0.0998214 0.0000
  3    -94.9668094852  -0.155262544172 0.04364616  0.00303578  0.0556222 0.0000
  4    -94.9816198105  -0.014810325364 0.01542251  0.00084205  0.0207818 0.0000
  5    -94.9840549162  -0.002435105698 0.00504229  0.00031886  0.0076975 0.0000
  6    -94.9843529174  -0.000298001220 0.00221532  0.00017255  0.0034284 0.0000
  7    -94.9844226889  -0.000069771477 0.00097759  0.00007218  0.0013760 0.0000
  8    -94.9844347789  -0.000012089957 0.00058018  0.00004503  0.0005829 0.0000
               *** Restarting incremental Fock matrix formation ***
                                   *** Resetting DIIS ***
  9    -94.9844431501  -0.000008371259 0.00014063  0.00000862  0.0001017 0.0000
 10    -94.9844432045  -0.000000054331 0.00006438  0.00000349  0.0000742 0.0000
 11    -94.9844432362  -0.000000031783 0.00002915  0.00000217  0.0000173 0.0000
 12    -94.9844432409  -0.000000004608 0.00000873  0.00000060  0.0000039 0.0000
 13    -94.9844432415  -0.000000000647 0.00000217  0.00000017  0.0000026 0.0000
                 **** Energy Check signals convergence ****

               *****************************************************
               *                     SUCCESS                       *
               *           SCF CONVERGED AFTER  14 CYCLES          *
               *****************************************************

Old exchange energy                            =     -5.537473424 Eh
New exchange energy                            =     -5.537474240 Eh
Exchange energy change after final integration =     -0.000000816 Eh
Total energy after final integration           =    -94.984444058 Eh
Final COS-X integration done in                =     0.277 sec

----------------
TOTAL SCF ENERGY
----------------

Total Energy       :          -94.98444406 Eh           -2584.65812 eV

Components:
Nuclear Repulsion  :           36.12974909 Eh             983.14045 eV
Electronic Energy  :         -131.11419315 Eh           -3567.79858 eV
One Electron Energy:         -199.07799936 Eh           -5417.18777 eV
Two Electron Energy:           67.96380622 Eh            1849.38919 eV
Max COSX asymmetry :            0.00000029 Eh               0.00001 eV

Virial components:
Potential Energy   :         -189.31002900 Eh           -5151.38778 eV
Kinetic Energy     :           94.32558495 Eh            2566.72966 eV
Virial Ratio       :            2.00698495


DFT components:
N(Alpha)           :        8.999999928835 electrons
N(Beta)            :        7.999999899572 electrons
N(Total)           :       16.999999828407 electrons
E(X)               :       -7.344129912997 Eh       
E(C)               :       -0.707860720952 Eh       
E(XC)              :       -8.051990633949 Eh       
DFET-embed. en.    :        0.000000000000 Eh       

---------------
SCF CONVERGENCE
---------------

  Last Energy change         ...    1.9671e-10  Tolerance :   1.0000e-08
  Last MAX-Density change    ...    0.0000e+00  Tolerance :   1.0000e-07
  Last RMS-Density change    ...    0.0000e+00  Tolerance :   5.0000e-09
  Last DIIS Error            ...    1.0089e-06  Tolerance :   5.0000e-07

             **** THE GBW FILE WAS UPDATED (pbeh-3c.gbw) ****
             **** DENSITY pbeh-3c.scfp WAS UPDATED ****
             **** ENERGY FILE WAS UPDATED (pbeh-3c.en.tmp) ****
----------------------
UHF SPIN CONTAMINATION
----------------------

Warning: in a DFT calculation there is little theoretical justification to 
         calculate <S**2> as in Hartree-Fock theory. We will do it anyways
         but you should keep in mind that the values have only limited relevance

Expectation value of <S**2>     :     0.754371
Ideal value S*(S+1) for S=0.5   :     0.750000
Deviation                       :     0.004371

             **** THE GBW FILE WAS UPDATED (pbeh-3c.gbw) ****
             **** DENSITY pbeh-3c.scfp WAS UPDATED ****
----------------
ORBITAL ENERGIES
----------------
                 SPIN UP ORBITALS
  NO   OCC          E(Eh)            E(eV) 
   0   1.0000     -14.647098      -398.5678 
   1   1.0000     -10.457648      -284.5671 
   2   1.0000      -0.979396       -26.6507 
   3   1.0000      -0.733920       -19.9710 
   4   1.0000      -0.530581       -14.4378 
   5   1.0000      -0.503512       -13.7013 
   6   1.0000      -0.458931       -12.4882 
   7   1.0000      -0.340141        -9.2557 
   8   1.0000      -0.324980        -8.8432 
   9   0.0000       0.137757         3.7486 
  10   0.0000       0.192051         5.2260 
  11   0.0000       0.215911         5.8752 
  12   0.0000       0.220568         6.0019 
  13   0.0000       0.247135         6.7249 
  14   0.0000       0.524590        14.2748 
  15   0.0000       0.530532        14.4365 
  16   0.0000       0.555656        15.1202 
  17   0.0000       0.794097        21.6085 
  18   0.0000       0.813433        22.1346 
  19   0.0000       0.877070        23.8663 
  20   0.0000       0.953995        25.9595 
  21   0.0000       0.977405        26.5965 
  22   0.0000       1.041290        28.3349 
  23   0.0000       1.050376        28.5822 
  24   0.0000       1.098208        29.8838 
  25   0.0000       1.482686        40.3459 
  26   0.0000       1.512414        41.1549 
  27   0.0000       1.591195        43.2986 
  28   0.0000       1.723688        46.9039 
  29   0.0000       2.060182        56.0604 
  30   0.0000       2.108660        57.3795 
  31   0.0000       2.171576        59.0916 
  32   0.0000       2.358577        64.1802 
  33   0.0000       2.416994        65.7698 
  34   0.0000       2.417557        65.7851 
  35   0.0000       2.712408        73.8084 
  36   0.0000      13.719299       373.3211 
  37   0.0000      19.022238       517.6214 

                 SPIN DOWN ORBITALS
  NO   OCC          E(Eh)            E(eV) 
   0   1.0000     -14.625575      -397.9821 
   1   1.0000     -10.458842      -284.5996 
   2   1.0000      -0.930285       -25.3144 
   3   1.0000      -0.713221       -19.4077 
   4   1.0000      -0.517545       -14.0831 
   5   1.0000      -0.472609       -12.8604 
   6   1.0000      -0.451474       -12.2852 
   7   1.0000      -0.314628        -8.5615 
   8   0.0000      -0.028659        -0.7798 
   9   0.0000       0.145295         3.9537 
  10   0.0000       0.200076         5.4443 
  11   0.0000       0.221862         6.0372 
  12   0.0000       0.228646         6.2218 
  13   0.0000       0.255164         6.9434 
  14   0.0000       0.530999        14.4492 
  15   0.0000       0.531155        14.4535 
  16   0.0000       0.563094        15.3226 
  17   0.0000       0.807262        21.9667 
  18   0.0000       0.892753        24.2930 
  19   0.0000       0.914131        24.8748 
  20   0.0000       0.968806        26.3625 
  21   0.0000       0.986494        26.8439 
  22   0.0000       1.042871        28.3780 
  23   0.0000       1.056462        28.7478 
  24   0.0000       1.113097        30.2889 
  25   0.0000       1.508844        41.0577 
  26   0.0000       1.541245        41.9394 
  27   0.0000       1.616514        43.9876 
  28   0.0000       1.791543        48.7504 
  29   0.0000       2.085280        56.7433 
  30   0.0000       2.115976        57.5786 
  31   0.0000       2.196458        59.7687 
  32   0.0000       2.394981        65.1708 
  33   0.0000       2.423812        65.9553 
  34   0.0000       2.439595        66.3848 
  35   0.0000       2.724518        74.1379 
  36   0.0000      13.718136       373.2895 
  37   0.0000      19.052067       518.4331 

                    ********************************
                    * MULLIKEN POPULATION ANALYSIS *
                    ********************************

--------------------------------------------
MULLIKEN ATOMIC CHARGES AND SPIN POPULATIONS
--------------------------------------------
   0 C :   -0.533902   -0.088506
   1 H :    0.216523    0.055930
   2 H :    0.229986    0.000366
   3 H :    0.216523    0.055930
   4 N :   -0.429540    1.017344
   5 H :    0.300410   -0.041065
Sum of atomic charges         :    0.0000000
Sum of atomic spin populations:    1.0000000

-----------------------------------------------------
MULLIKEN REDUCED ORBITAL CHARGES AND SPIN POPULATIONS
-----------------------------------------------------
CHARGE
  0 C s       :     3.348073  s :     3.348073
      pz      :     1.114021  p :     3.135154
      px      :     0.856326
      py      :     1.164807
      dz2     :     0.008222  d :     0.050675
      dxz     :     0.008521
      dyz     :     0.007915
      dx2y2   :     0.012080
      dxy     :     0.013936
  1 H s       :     0.783477  s :     0.783477
  2 H s       :     0.770014  s :     0.770014
  3 H s       :     0.783477  s :     0.783477
  4 N s       :     3.760716  s :     3.760716
      pz      :     1.014335  p :     3.636255
      px      :     1.205573
      py      :     1.416347
      dz2     :     0.006336  d :     0.032569
      dxz     :     0.003445
      dyz     :     0.000823
      dx2y2   :     0.015164
      dxy     :     0.006802
  5 H s       :     0.699590  s :     0.699590

SPIN
  0 C s       :    -0.019050  s :    -0.019050
      pz      :    -0.034308  p :    -0.078119
      px      :    -0.033888
      py      :    -0.009924
      dz2     :     0.000125  d :     0.008663
      dxz     :     0.007412
      dyz     :     0.001123
      dx2y2   :     0.000123
      dxy     :    -0.000120
  1 H s       :     0.055930  s :     0.055930
  2 H s       :     0.000366  s :     0.000366
  3 H s       :     0.055930  s :     0.055930
  4 N s       :     0.042619  s :     0.042619
      pz      :     0.931203  p :     0.974756
      px      :     0.024288
      py      :     0.019264
      dz2     :    -0.000701  d :    -0.000031
      dxz     :    -0.000055
      dyz     :     0.000564
      dx2y2   :     0.000124
      dxy     :     0.000037
  5 H s       :    -0.041065  s :    -0.041065


                     *******************************
                     * LOEWDIN POPULATION ANALYSIS *
                     *******************************

-------------------------------------------
LOEWDIN ATOMIC CHARGES AND SPIN POPULATIONS
-------------------------------------------
   0 C :   -0.305701   -0.032584
   1 H :    0.123475    0.045115
   2 H :    0.123620    0.000075
   3 H :    0.123475    0.045115
   4 N :   -0.271910    0.968408
   5 H :    0.207040   -0.026130

----------------------------------------------------
LOEWDIN REDUCED ORBITAL CHARGES AND SPIN POPULATIONS
----------------------------------------------------
CHARGE
  0 C s       :     2.957146  s :     2.957146
      pz      :     1.123076  p :     3.250014
      px      :     0.982995
      py      :     1.143942
      dz2     :     0.015596  d :     0.098541
      dxz     :     0.017970
      dyz     :     0.012840
      dx2y2   :     0.025223
      dxy     :     0.026912
  1 H s       :     0.876525  s :     0.876525
  2 H s       :     0.876380  s :     0.876380
  3 H s       :     0.876525  s :     0.876525
  4 N s       :     3.445322  s :     3.445322
      pz      :     1.016992  p :     3.771189
      px      :     1.307959
      py      :     1.446239
      dz2     :     0.008608  d :     0.055398
      dxz     :     0.007053
      dyz     :     0.000819
      dx2y2   :     0.025380
      dxy     :     0.013538
  5 H s       :     0.792960  s :     0.792960

SPIN
  0 C s       :    -0.007457  s :    -0.007457
      pz      :    -0.015032  p :    -0.044424
      px      :    -0.023789
      py      :    -0.005602
      dz2     :     0.000487  d :     0.019297
      dxz     :     0.015366
      dyz     :     0.002490
      dx2y2   :     0.000991
      dxy     :    -0.000037
  1 H s       :     0.045115  s :     0.045115
  2 H s       :     0.000075  s :     0.000075
  3 H s       :     0.045115  s :     0.045115
  4 N s       :     0.025707  s :     0.025707
      pz      :     0.915265  p :     0.943671
      px      :     0.016626
      py      :     0.011780
      dz2     :    -0.000221  d :    -0.000969
      dxz     :    -0.000181
      dyz     :     0.000556
      dx2y2   :    -0.000901
      dxy     :    -0.000223
  5 H s       :    -0.026130  s :    -0.026130


                      *****************************
                      * MAYER POPULATION ANALYSIS *
                      *****************************

  NA   - Mulliken gross atomic population
  ZA   - Total nuclear charge
  QA   - Mulliken gross atomic charge
  VA   - Mayer's total valence
  BVA  - Mayer's bonded valence
  FA   - Mayer's free valence

  ATOM       NA         ZA         QA         VA         BVA        FA
  0 C      6.5339     6.0000    -0.5339     3.7909     3.7870     0.0039
  1 H      0.7835     1.0000     0.2165     0.9048     0.9017     0.0031
  2 H      0.7700     1.0000     0.2300     0.9021     0.9021    -0.0000
  3 H      0.7835     1.0000     0.2165     0.9048     0.9017     0.0031
  4 N      7.4295     7.0000    -0.4295     2.8450     1.9663     0.8788
  5 H      0.6996     1.0000     0.3004     0.8652     0.8635     0.0017

  Mayer bond orders larger than 0.100000
B(  0-C ,  1-H ) :   0.9008 B(  0-C ,  2-H ) :   0.9133 B(  0-C ,  3-H ) :   0.9008 
B(  0-C ,  4-N ) :   1.0765 B(  4-N ,  5-H ) :   0.8588 

-------
TIMINGS
-------

Total SCF time: 0 days 0 hours 1 min 5 sec 

Total time                  ....      65.520 sec
Sum of individual times     ....      59.356 sec  ( 90.6%)

Fock matrix formation       ....      48.091 sec  ( 73.4%)
  Split-RI-J                ....       5.313 sec  ( 11.0% of F)
  Chain of spheres X        ....       4.919 sec  ( 10.2% of F)
  XC integration            ....      13.209 sec  ( 27.5% of F)
    Basis function eval.    ....       0.567 sec  (  4.3% of XC)
    Density eval.           ....       0.674 sec  (  5.1% of XC)
    XC-Functional eval.     ....       0.871 sec  (  6.6% of XC)
    XC-Potential eval.      ....       0.322 sec  (  2.4% of XC)
Diagonalization             ....       2.278 sec  (  3.5%)
Density matrix formation    ....       0.141 sec  (  0.2%)
Population analysis         ....       0.751 sec  (  1.1%)
Initial guess               ....       0.065 sec  (  0.1%)
Orbital Transformation      ....       0.000 sec  (  0.0%)
Orbital Orthonormalization  ....       0.000 sec  (  0.0%)
DIIS solution               ....       4.132 sec  (  6.3%)
Grid generation             ....       3.898 sec  (  5.9%)

Maximum memory used throughout the entire SCF-calculation: 45.0 MB


-------------------------------------------------------------------------------
                          DFT DISPERSION CORRECTION                            
                                                                               
                              DFTD3 V3.1  Rev 1                                
                          USING Becke-Johnson damping                          
-------------------------------------------------------------------------------
The PBEh-3c composite method is recognized
Using three-body term ABC
Active option DFTDOPT                   ...         4   

molecular C6(AA) [au] = 246.949064 


            DFT-D V3
 parameters
 s6 scaling factor         :     1.0000 
 a1 scaling factor         :     0.4860 
 s8 scaling factor         :     0.0000 
 a2 scaling factor         :     4.5000 
 Damping factor alpha9(ATM):    16.0000 
 ad hoc parameters k1-k3   :    16.0000     1.3333    -4.0000 

 Edisp/kcal,au: -0.770891352636  -0.001228493437 
 E6   /kcal   :  -0.771003459 
 E8   /kcal   :  -0.000000000 
 E6(ABC)      :   0.000112107 
 % E8         :   0.000000000 
 % E6(ABC)    :  -0.014542481 

-------------------------   ----------------
Dispersion correction           -0.001228493
-------------------------   ----------------

------------------   -----------------
gCP correction             0.007495747
------------------   -----------------

-------------------------   --------------------
FINAL SINGLE POINT ENERGY       -94.978176803738
-------------------------   --------------------


                            ***************************************
                            *     ORCA property calculations      *
                            ***************************************

                                    ---------------------
                                    Active property flags
                                    ---------------------
   (+) Dipole Moment


------------------------------------------------------------------------------
                       ORCA ELECTRIC PROPERTIES CALCULATION
------------------------------------------------------------------------------

Dipole Moment Calculation                       ... on
Quadrupole Moment Calculation                   ... off
Polarizability Calculation                      ... off
GBWName                                         ... pbeh-3c.gbw
Electron density                                ... pbeh-3c.scfp
The origin for moment calculation is the CENTER OF MASS  = ( 0.000001,  0.000005  0.000000)

-------------
DIPOLE MOMENT
-------------
                                X             Y             Z
Electronic contribution:      1.52031      -0.31392       0.00000
Nuclear contribution   :     -2.01114       0.94935       0.00000
                        -----------------------------------------
Total Dipole Moment    :     -0.49083       0.63543       0.00000
                        -----------------------------------------
Magnitude (a.u.)       :      0.80292
Magnitude (Debye)      :      2.04086



--------------------
Rotational spectrum 
--------------------
 
Rotational constants in cm-1:     4.173828     0.846270     0.808555 
Rotational constants in MHz : 125128.211287 25370.534419 24239.863950 

 Dipole components along the rotational axes: 
x,y,z [a.u.] :     0.490827     0.635430     0.000000 
x,y,z [Debye]:     1.247582     1.615134     0.000000 

 

Timings for individual modules:

Sum of individual times         ...       69.026 sec (=   1.150 min)
GTO integral calculation        ...        2.843 sec (=   0.047 min)   4.1 %
SCF iterations                  ...       66.183 sec (=   1.103 min)  95.9 %
                             ****ORCA TERMINATED NORMALLY****
TOTAL RUN TIME: 0 days 0 hours 1 minutes 11 seconds 495 msec
