
                                 *****************
                                 * O   R   C   A *
                                 *****************

                                            #,                                       
                                            ###                                      
                                            ####                                     
                                            #####                                    
                                            ######                                   
                                           ########,                                 
                                     ,,################,,,,,                         
                               ,,#################################,,                 
                          ,,##########################################,,             
                       ,#########################################, ''#####,          
                    ,#############################################,,   '####,        
                  ,##################################################,,,,####,       
                ,###########''''           ''''###############################       
              ,#####''   ,,,,##########,,,,          '''####'''          '####       
            ,##' ,,,,###########################,,,                        '##       
           ' ,,###''''                  '''############,,,                           
         ,,##''                                '''############,,,,        ,,,,,,###''
      ,#''                                            '''#######################'''  
     '                                                          ''''####''''         
             ,#######,   #######,   ,#######,      ##                                
            ,#'     '#,  ##    ##  ,#'     '#,    #''#        ######   ,####,        
            ##       ##  ##   ,#'  ##            #'  '#       #        #'  '#        
            ##       ##  #######   ##           ,######,      #####,   #    #        
            '#,     ,#'  ##    ##  '#,     ,#' ,#      #,         ##   #,  ,#        
             '#######'   ##     ##  '#######'  #'      '#     #####' # '####'        



                  #######################################################
                  #                        -***-                        #
                  #          Department of theory and spectroscopy      #
                  #    Directorship and core code : Frank Neese         #
                  #        Max Planck Institute fuer Kohlenforschung    #
                  #                Kaiser Wilhelm Platz 1               #
                  #                 D-45470 Muelheim/Ruhr               #
                  #                      Germany                        #
                  #                                                     #
                  #                  All rights reserved                #
                  #                        -***-                        #
                  #######################################################


                         Program Version 5.0.3 -  RELEASE  -


 With contributions from (in alphabetic order):
   Daniel Aravena         : Magnetic Suceptibility
   Michael Atanasov       : Ab Initio Ligand Field Theory (pilot matlab implementation)
   Alexander A. Auer      : GIAO ZORA, VPT2 properties, NMR spectrum
   Ute Becker             : Parallelization
   Giovanni Bistoni       : ED, misc. LED, open-shell LED, HFLD
   Martin Brehm           : Molecular dynamics
   Dmytro Bykov           : SCF Hessian
   Vijay G. Chilkuri      : MRCI spin determinant printing, contributions to CSF-ICE
   Dipayan Datta          : RHF DLPNO-CCSD density
   Achintya Kumar Dutta   : EOM-CC, STEOM-CC
   Dmitry Ganyushin       : Spin-Orbit,Spin-Spin,Magnetic field MRCI
   Miquel Garcia          : C-PCM and meta-GGA Hessian, CC/C-PCM, Gaussian charge scheme
   Yang Guo               : DLPNO-NEVPT2, F12-NEVPT2, CIM, IAO-localization
   Andreas Hansen         : Spin unrestricted coupled pair/coupled cluster methods
   Benjamin Helmich-Paris : MC-RPA, TRAH-SCF, COSX integrals
   Lee Huntington         : MR-EOM, pCC
   Robert Izsak           : Overlap fitted RIJCOSX, COSX-SCS-MP3, EOM
   Marcus Kettner         : VPT2
   Christian Kollmar      : KDIIS, OOCD, Brueckner-CCSD(T), CCSD density, CASPT2, CASPT2-K
   Simone Kossmann        : Meta GGA functionals, TD-DFT gradient, OOMP2, MP2 Hessian
   Martin Krupicka        : Initial AUTO-CI
   Lucas Lang             : DCDCAS
   Marvin Lechner         : AUTO-CI (C++ implementation), FIC-MRCC
   Dagmar Lenk            : GEPOL surface, SMD
   Dimitrios Liakos       : Extrapolation schemes; Compound Job, initial MDCI parallelization
   Dimitrios Manganas     : Further ROCIS development; embedding schemes
   Dimitrios Pantazis     : SARC Basis sets
   Anastasios Papadopoulos: AUTO-CI, single reference methods and gradients
   Taras Petrenko         : DFT Hessian,TD-DFT gradient, ASA, ECA, R-Raman, ABS, FL, XAS/XES, NRVS
   Peter Pinski           : DLPNO-MP2, DLPNO-MP2 Gradient
   Christoph Reimann      : Effective Core Potentials
   Marius Retegan         : Local ZFS, SOC
   Christoph Riplinger    : Optimizer, TS searches, QM/MM, DLPNO-CCSD(T), (RO)-DLPNO pert. Triples
   Tobias Risthaus        : Range-separated hybrids, TD-DFT gradient, RPA, STAB
   Michael Roemelt        : Original ROCIS implementation
   Masaaki Saitow         : Open-shell DLPNO-CCSD energy and density
   Barbara Sandhoefer     : DKH picture change effects
   Avijit Sen             : IP-ROCIS
   Kantharuban Sivalingam : CASSCF convergence, NEVPT2, FIC-MRCI
   Bernardo de Souza      : ESD, SOC TD-DFT
   Georgi Stoychev        : AutoAux, RI-MP2 NMR, DLPNO-MP2 response
   Willem Van den Heuvel  : Paramagnetic NMR
   Boris Wezisla          : Elementary symmetry handling
   Frank Wennmohs         : Technical directorship


 We gratefully acknowledge several colleagues who have allowed us to
 interface, adapt or use parts of their codes:
   Stefan Grimme, W. Hujo, H. Kruse, P. Pracht,  : VdW corrections, initial TS optimization,
                  C. Bannwarth, S. Ehlert          DFT functionals, gCP, sTDA/sTD-DF
   Ed Valeev, F. Pavosevic, A. Kumar             : LibInt (2-el integral package), F12 methods
   Garnet Chan, S. Sharma, J. Yang, R. Olivares  : DMRG
   Ulf Ekstrom                                   : XCFun DFT Library
   Mihaly Kallay                                 : mrcc  (arbitrary order and MRCC methods)
   Jiri Pittner, Ondrej Demel                    : Mk-CCSD
   Frank Weinhold                                : gennbo (NPA and NBO analysis)
   Christopher J. Cramer and Donald G. Truhlar   : smd solvation model
   Lars Goerigk                                  : TD-DFT with DH, B97 family of functionals
   V. Asgeirsson, H. Jonsson                     : NEB implementation
   FAccTs GmbH                                   : IRC, NEB, NEB-TS, DLPNO-Multilevel, CI-OPT
                                                   MM, QMMM, 2- and 3-layer-ONIOM, Crystal-QMMM,
                                                   LR-CPCM, SF, NACMEs, symmetry and pop. for TD-DFT,
                                                   nearIR, NL-DFT gradient (VV10), updates on ESD,
                                                   ML-optimized integration grids
   S Lehtola, MJT Oliveira, MAL Marques          : LibXC Library
   Liviu Ungur et al                             : ANISO software


 Your calculation uses the libint2 library for the computation of 2-el integrals
 For citations please refer to: http://libint.valeyev.net

 Your ORCA version has been built with support for libXC version: 5.1.0
 For citations please refer to: https://tddft.org/programs/libxc/

 This ORCA versions uses:
   CBLAS   interface :  Fast vector & matrix operations
   LAPACKE interface :  Fast linear algebra routines
   SCALAPACK package :  Parallel linear algebra routines
   Shared memory     :  Shared parallel matrices
   BLAS/LAPACK       :  OpenBLAS 0.3.15  USE64BITINT DYNAMIC_ARCH NO_AFFINITY Haswell SINGLE_THREADED
        Core in use  :  Haswell
   Copyright (c) 2011-2014, The OpenBLAS Project




***************************************
The coordinates will be read from file: P30.xyz
***************************************


Your calculation utilizes the geometrical counterpoise correction gCP
Please cite in your paper:
H.Kruse, S. Grimme J.Chem.Phys., 136, (2012), 154101 
   

Your calculation utilizes the atom-pairwise dispersion correction
with the Becke-Johnson damping scheme (D3BJ)
Cite in your paper:
S.Grimme, S.Ehrlich, L.Goerigk, J Comput Chem, (2011), 32, 1456–1465 
S.Grimme, J.Antony, S.Ehrlich and H.Krieg, J.Chem.Phys., 132, (2010), 154104 
   

Your calculation employs the composite approach PBEh-3c.
Please cite in your paper:
S. Grimme, J. G. Brandenburg, C. Bannwarth, A. Hansen J.Chem.Phys., 143, (2015), 054107 
   

================================================================================

----- Orbital basis set information -----
Your calculation utilizes the basis: def2-mSVP

----- AuxJ basis set information -----
Your calculation utilizes the auxiliary basis: def2/J
   F. Weigend, Phys. Chem. Chem. Phys. 8, 1057 (2006).

================================================================================
                                        WARNINGS
                       Please study these warnings very carefully!
================================================================================


WARNING: your system is open-shell and RHF/RKS was chosen
  ===> : WILL SWITCH to UHF/UKS


INFO   : the flag for use of the SHARK integral package has been found!

================================================================================
                                       INPUT FILE
================================================================================
NAME = pbeh-3c.inp
|  1> ! PBEh-3c def2/J TightSCF DefGrid3
|  2> 
|  3> %maxcore 60000
|  4> 
|  5> %pal
|  6> nprocs 4
|  7> end
|  8> 
|  9> *xyzfile 0 2 P30.xyz
| 10> 
| 11>                          ****END OF INPUT****
================================================================================

                       ****************************
                       * Single Point Calculation *
                       ****************************

---------------------------------
CARTESIAN COORDINATES (ANGSTROEM)
---------------------------------
  C     -1.173791    0.149382    0.000000
  O      0.059760    0.734210    0.000000
  C      1.170329   -0.057841    0.000000
  H     -1.257854   -0.927646    0.000000
  H     -1.998161    0.839066    0.000000
  O      2.271118    0.396531    0.000000
  H      0.928599   -1.133703    0.000000

----------------------------
CARTESIAN COORDINATES (A.U.)
----------------------------
  NO LB      ZA    FRAG     MASS         X           Y           Z
   0 C     6.0000    0    12.011   -2.218144    0.282291    0.000000
   1 O     8.0000    0    15.999    0.112930    1.387457    0.000000
   2 C     6.0000    0    12.011    2.211601   -0.109304    0.000000
   3 H     1.0000    0     1.008   -2.376999   -1.752997    0.000000
   4 H     1.0000    0     1.008   -3.775976    1.585605    0.000000
   5 O     8.0000    0    15.999    4.291791    0.749336    0.000000
   6 H     1.0000    0     1.008    1.754798   -2.142388    0.000000

--------------------------------
INTERNAL COORDINATES (ANGSTROEM)
--------------------------------
 C      0   0   0     0.000000000000     0.00000000     0.00000000
 O      1   0   0     1.365164250504     0.00000000     0.00000000
 C      2   1   0     1.364077676726   119.13803455     0.00000000
 H      1   2   3     1.080303492038   119.82862107     0.00000000
 H      1   2   3     1.074825209196   114.71777214   180.00000000
 O      3   2   1     1.190878583732   122.07438701   180.00000000
 H      3   2   1     1.102684032592   112.83308081     0.00000000

---------------------------
INTERNAL COORDINATES (A.U.)
---------------------------
 C      0   0   0     0.000000000000     0.00000000     0.00000000
 O      1   0   0     2.579786561272     0.00000000     0.00000000
 C      2   1   0     2.577733234407   119.13803455     0.00000000
 H      1   2   3     2.041477741471   119.82862107     0.00000000
 H      1   2   3     2.031125287215   114.71777214   180.00000000
 O      3   2   1     2.250434382006   122.07438701   180.00000000
 H      3   2   1     2.083770833847   112.83308081     0.00000000

---------------------
BASIS SET INFORMATION
---------------------
There are 3 groups of distinct atoms

 Group   1 Type C   : 8s4p1d contracted to 4s2p1d pattern {5111/31/1}
 Group   2 Type O   : 8s4p1d contracted to 4s2p1d pattern {5111/31/1}
 Group   3 Type H   : 4s contracted to 2s pattern {31}

Atom   0C    basis set group =>   1
Atom   1O    basis set group =>   2
Atom   2C    basis set group =>   1
Atom   3H    basis set group =>   3
Atom   4H    basis set group =>   3
Atom   5O    basis set group =>   2
Atom   6H    basis set group =>   3
---------------------------------
AUXILIARY/J BASIS SET INFORMATION
---------------------------------
There are 3 groups of distinct atoms

 Group   1 Type C   : 12s5p4d2f1g contracted to 6s4p3d1f1g pattern {711111/2111/211/2/1}
 Group   2 Type O   : 12s5p4d2f1g contracted to 6s4p3d1f1g pattern {711111/2111/211/2/1}
 Group   3 Type H   : 5s2p1d contracted to 3s1p1d pattern {311/2/1}

Atom   0C    basis set group =>   1
Atom   1O    basis set group =>   2
Atom   2C    basis set group =>   1
Atom   3H    basis set group =>   3
Atom   4H    basis set group =>   3
Atom   5O    basis set group =>   2
Atom   6H    basis set group =>   3


           ************************************************************
           *        Program running with 4 parallel MPI-processes     *
           *              working on a common directory               *
           ************************************************************
------------------------------------------------------------------------------
                           ORCA GTO INTEGRAL CALCULATION
                           -- RI-GTO INTEGRALS CHOSEN --
------------------------------------------------------------------------------
------------------------------------------------------------------------------
                   ___                                                        
                  /   \      - P O W E R E D   B Y -                         
                 /     \                                                     
                 |  |  |   _    _      __       _____    __    __             
                 |  |  |  | |  | |    /  \     |  _  \  |  |  /  |          
                  \  \/   | |  | |   /    \    | | | |  |  | /  /          
                 / \  \   | |__| |  /  /\  \   | |_| |  |  |/  /          
                |  |  |   |  __  | /  /__\  \  |    /   |      \           
                |  |  |   | |  | | |   __   |  |    \   |  |\   \          
                \     /   | |  | | |  |  |  |  | |\  \  |  | \   \       
                 \___/    |_|  |_| |__|  |__|  |_| \__\ |__|  \__/        
                                                                              
                      - O R C A' S   B I G   F R I E N D -                    
                                      &                                       
                       - I N T E G R A L  F E E D E R -                       
                                                                              
 v1 FN, 2020, v2 2021                                                         
------------------------------------------------------------------------------


Reading SHARK input file pbeh-3c.SHARKINP.tmp ... ok
----------------------
SHARK INTEGRAL PACKAGE
----------------------

Number of atoms                             ...      7
Number of basis functions                   ...     66
Number of shells                            ...     34
Maximum angular momentum                    ...      2
Integral batch strategy                     ... SHARK/LIBINT Hybrid
RI-J (if used) integral strategy            ... SPLIT-RIJ (Revised 2003 algorithm where possible)
Printlevel                                  ...      1
Contraction scheme used                     ... SEGMENTED contraction
Coulomb Range Separation                    ... NOT USED
Exchange Range Separation                   ... NOT USED
Finite Nucleus Model                        ... NOT USED
Auxiliary Coulomb fitting basis             ... AVAILABLE
   # of basis functions in Aux-J            ...    229
   # of shells in Aux-J                     ...     75
   Maximum angular momentum in Aux-J        ...      4
Auxiliary J/K fitting basis                 ... NOT available
Auxiliary Correlation fitting basis         ... NOT available
Auxiliary 'external' fitting basis          ... NOT available
Integral threshold                          ...     2.500000e-11
Primitive cut-off                           ...     2.500000e-12
Primitive pair pre-selection threshold      ...     2.500000e-12

Calculating pre-screening integrals         ... done (  0.1 sec) Dimension = 34
Organizing shell pair data                  ... done (  0.4 sec)
Shell pair information
Total number of shell pairs                 ...       595
Shell pairs after pre-screening             ...       566
Total number of primitive shell pairs       ...      2141
Primitive shell pairs kept                  ...      1610
          la=0 lb=0:    229 shell pairs
          la=1 lb=0:    174 shell pairs
          la=1 lb=1:     36 shell pairs
          la=2 lb=0:     85 shell pairs
          la=2 lb=1:     32 shell pairs
          la=2 lb=2:     10 shell pairs

Calculating one electron integrals          ... done (  0.0 sec)
Calculating RI/J V-Matrix + Cholesky decomp.... done (  0.8 sec)
Calculating Nuclear repulsion               ... done (  0.2 sec) ENN=    112.364387752545 Eh

SHARK setup successfully completed in   3.3 seconds

Maximum memory used throughout the entire GTOINT-calculation: 9.3 MB


           ************************************************************
           *        Program running with 4 parallel MPI-processes     *
           *              working on a common directory               *
           ************************************************************
-------------------------------------------------------------------------------
                                 ORCA SCF
-------------------------------------------------------------------------------

------------
SCF SETTINGS
------------
Hamiltonian:
 Density Functional     Method          .... DFT(GTOs)
 Exchange Functional    Exchange        .... PBE
   PBE kappa parameter   XKappa         ....  1.024500
   PBE mue parameter    XMuePBE         ....  0.123457
 Correlation Functional Correlation     .... PBE
   PBE beta parameter  CBetaPBE         ....  0.030000
 LDA part of GGA corr.  LDAOpt          .... PW91-LDA
 Gradients option       PostSCFGGA      .... off
 Hybrid DFT is turned on
   Fraction HF Exchange ScalHFX         ....  0.420000
   Scaling of DF-GGA-X  ScalDFX         ....  0.580000
   Scaling of DF-GGA-C  ScalDFC         ....  1.000000
   Scaling of DF-LDA-C  ScalLDAC        ....  1.000000
   Perturbative correction              ....  0.000000
   Density functional embedding theory  .... OFF
 RI-approximation to the Coulomb term is turned on
   Number of AuxJ basis functions       .... 229
   RIJ-ON(X) (HFX calculated with O(N)) .... on
   Number of AuxJ basis functions       .... 229
   RIJ-COSX (HFX calculated with COS-X)).... on


General Settings:
 Integral files         IntName         .... pbeh-3c
 Hartree-Fock type      HFTyp           .... UHF
 Total Charge           Charge          ....    0
 Multiplicity           Mult            ....    2
 Number of Electrons    NEL             ....   31
 Basis Dimension        Dim             ....   66
 Nuclear Repulsion      ENuc            ....    112.3643877525 Eh

Convergence Acceleration:
 DIIS                   CNVDIIS         .... on
   Start iteration      DIISMaxIt       ....    12
   Startup error        DIISStart       ....  0.200000
   # of expansion vecs  DIISMaxEq       ....     5
   Bias factor          DIISBfac        ....   1.050
   Max. coefficient     DIISMaxC        ....  10.000
 Trust-Rad. Augm. Hess. CNVTRAH         .... auto
   Auto Start mean grad. ratio tolernc. ....  1.125000
   Auto Start start iteration           ....    20
   Auto Start num. interpolation iter.  ....    10
   Max. Number of Micro iterations      ....    16
   Max. Number of Macro iterations      .... Maxiter - #DIIS iter
   Number of Davidson start vectors     ....     2
   Converg. threshold I  (grad. norm)   ....   1.000e-05
   Converg. threshold II (energy diff.) ....   1.000e-08
   Grad. Scal. Fac. for Micro threshold ....   0.100
   Minimum threshold for Micro iter.    ....   0.010
   NR start threshold (gradient norm)   ....   0.001
   Initial trust radius                 ....   0.400
   Minimum AH scaling param. (alpha)    ....   1.000
   Maximum AH scaling param. (alpha)    .... 1000.000
   Orbital update algorithm             .... Taylor
   White noise on init. David. guess    .... on
   Maximum white noise                  ....   0.010
   Quad. conv. algorithm                .... NR
   COSX micro iterations for RIJONX calc.... off
 SOSCF                  CNVSOSCF        .... off
 Level Shifting         CNVShift        .... on
   Level shift para.    LevelShift      ....    0.2500
   Turn off err/grad.   ShiftErr        ....    0.0010
 Zerner damping         CNVZerner       .... off
 Static damping         CNVDamp         .... on
   Fraction old density DampFac         ....    0.7000
   Max. Damping (<1)    DampMax         ....    0.9800
   Min. Damping (>=0)   DampMin         ....    0.0000
   Turn off err/grad.   DampErr         ....    0.1000
 Fernandez-Rico         CNVRico         .... off

SCF Procedure:
 Maximum # iterations   MaxIter         ....   125
 SCF integral mode      SCFMode         .... Direct
   Integral package                     .... SHARK and LIBINT hybrid scheme
 Reset frequency        DirectResetFreq ....    20
 Integral Threshold     Thresh          ....  2.500e-11 Eh
 Primitive CutOff       TCut            ....  2.500e-12 Eh

Convergence Tolerance:
 Convergence Check Mode ConvCheckMode   .... Total+1el-Energy
 Convergence forced     ConvForced      .... 0
 Energy Change          TolE            ....  1.000e-08 Eh
 1-El. energy change                    ....  1.000e-05 Eh
 DIIS Error             TolErr          ....  5.000e-07


Diagonalization of the overlap matrix:
Smallest eigenvalue                        ... 1.715e-02
Time for diagonalization                   ...    0.001 sec
Threshold for overlap eigenvalues          ... 1.000e-08
Number of eigenvalues below threshold      ... 0
Time for construction of square roots      ...    0.331 sec
Total time needed                          ...    0.428 sec

--------------------------------
INITIAL GUESS: MINIMAL BASIS EHT
--------------------------------
The minimal basis has 23 functions
EHT matrix was diagonalized
Basis set overlap was calculated now projecting the orbitals
Using GuessMode=FMatrix for the initial guess
C*T matrix was formed
Effective Fockian was calculated
Effective Fockian was diagonalized
Initial density was built
                      ------------------
                      INITIAL GUESS DONE
                      ------------------
-------------------
DFT GRID GENERATION
-------------------

General Integration Accuracy     IntAcc      ... 4.959
Radial Grid Type                 RadialGrid  ... OptM3 with GC (2021)
Angular Grid (max. ang.)         AngularGrid ... 6 (Lebedev-590)
Angular grid pruning method      GridPruning ... 4 (adaptive)
Weight generation scheme         WeightScheme... Becke
Basis function cutoff            BFCut       ... 1.0000e-11
Integration weight cutoff        WCut        ... 1.0000e-14
Angular grids for H and He will be reduced by one unit
Partially contracted basis set               ... off
Rotationally invariant grid construction     ... off

Total number of grid points                  ...    84753
Total number of batches                      ...     1328
Average number of points per batch           ...       63
Average number of grid points per atom       ...    12108
Time for grid setup =    2.337 sec

--------------------
COSX GRID GENERATION
--------------------

GRIDX 1
-------
General Integration Accuracy     IntAcc      ... 4.020
Radial Grid Type                 RadialGrid  ... OptM3 with GC (2021)
Angular Grid (max. ang.)         AngularGrid ... 2 (Lebedev-110)
Angular grid pruning method      GridPruning ... 4 (adaptive)
Weight generation scheme         WeightScheme... Becke
Basis function cutoff            BFCut       ... 1.0000e-11
Integration weight cutoff        WCut        ... 1.0000e-14
Angular grids for H and He will be reduced by one unit
Partially contracted basis set               ... on
Rotationally invariant grid construction     ... off

Total number of grid points                  ...     9797
Total number of batches                      ...      156
Average number of points per batch           ...       62
Average number of grid points per atom       ...     1400
UseSFitting                                  ... on

GRIDX 2
-------
General Integration Accuracy     IntAcc      ... 4.338
Radial Grid Type                 RadialGrid  ... OptM3 with GC (2021)
Angular Grid (max. ang.)         AngularGrid ... 3 (Lebedev-194)
Angular grid pruning method      GridPruning ... 4 (adaptive)
Weight generation scheme         WeightScheme... Becke
Basis function cutoff            BFCut       ... 1.0000e-11
Integration weight cutoff        WCut        ... 1.0000e-14
Angular grids for H and He will be reduced by one unit
Partially contracted basis set               ... on
Rotationally invariant grid construction     ... off

Total number of grid points                  ...    21691
Total number of batches                      ...      342
Average number of points per batch           ...       63
Average number of grid points per atom       ...     3099
UseSFitting                                  ... on

GRIDX 3
-------
General Integration Accuracy     IntAcc      ... 4.871
Radial Grid Type                 RadialGrid  ... OptM3 with GC (2021)
Angular Grid (max. ang.)         AngularGrid ... 4 (Lebedev-302)
Angular grid pruning method      GridPruning ... 4 (adaptive)
Weight generation scheme         WeightScheme... Becke
Basis function cutoff            BFCut       ... 1.0000e-11
Integration weight cutoff        WCut        ... 1.0000e-14
Angular grids for H and He will be reduced by one unit
Partially contracted basis set               ... on
Rotationally invariant grid construction     ... off

Total number of grid points                  ...    41106
Total number of batches                      ...      645
Average number of points per batch           ...       63
Average number of grid points per atom       ...     5872
UseSFitting                                  ... on

Time for X-Grid setup             =    4.586 sec

--------------
SCF ITERATIONS
--------------
ITER       Energy         Delta-E        Max-DP      RMS-DP      [F,P]     Damp
               ***  Starting incremental Fock matrix formation  ***
  0   -227.1347700093   0.000000000000 0.09451664  0.00472283  0.2600723 0.7000
  1   -227.4341608991  -0.299390889806 0.05341916  0.00266186  0.1292865 0.7000
                               ***Turning on DIIS***
  2   -227.5746783830  -0.140517483951 0.10922145  0.00480965  0.0908124 0.0000
  3   -227.8946137700  -0.319935387010 0.04906539  0.00201528  0.0665663 0.0000
  4   -227.9068573788  -0.012243608785 0.01817343  0.00072862  0.0375535 0.0000
  5   -227.9154736553  -0.008616276516 0.00539605  0.00023667  0.0063650 0.0000
  6   -227.9159293475  -0.000455692181 0.00266936  0.00011944  0.0033630 0.0000
  7   -227.9160419885  -0.000112641006 0.00143878  0.00006361  0.0011470 0.0000
  8   -227.9160691463  -0.000027157769 0.00150131  0.00005753  0.0007100 0.0000
               *** Restarting incremental Fock matrix formation ***
                                   *** Resetting DIIS ***
  9   -227.9160694772  -0.000000330850 0.00029014  0.00001459  0.0001742 0.0000
 10   -227.9160699400  -0.000000462858 0.00013744  0.00000590  0.0001763 0.0000
 11   -227.9160702197  -0.000000279643 0.00010817  0.00000389  0.0000711 0.0000
 12   -227.9160702876  -0.000000067934 0.00006754  0.00000244  0.0000552 0.0000
 13   -227.9160703092  -0.000000021609 0.00004023  0.00000094  0.0000324 0.0000
                 **** Energy Check signals convergence ****

               *****************************************************
               *                     SUCCESS                       *
               *           SCF CONVERGED AFTER  14 CYCLES          *
               *****************************************************

Old exchange energy                            =    -11.688789317 Eh
New exchange energy                            =    -11.688787427 Eh
Exchange energy change after final integration =      0.000001891 Eh
Total energy after final integration           =   -227.916068424 Eh
Final COS-X integration done in                =     1.295 sec

----------------
TOTAL SCF ENERGY
----------------

Total Energy       :         -227.91606842 Eh           -6201.91152 eV

Components:
Nuclear Repulsion  :          112.36438775 Eh            3057.59044 eV
Electronic Energy  :         -340.28045618 Eh           -9259.50196 eV
One Electron Energy:         -533.22889106 Eh          -14509.89579 eV
Two Electron Energy:          192.94843488 Eh            5250.39384 eV
Max COSX asymmetry :            0.00000046 Eh               0.00001 eV

Virial components:
Potential Energy   :         -454.28978038 Eh          -12361.85339 eV
Kinetic Energy     :          226.37371196 Eh            6159.94187 eV
Virial Ratio       :            2.00681332


DFT components:
N(Alpha)           :       15.999999975656 electrons
N(Beta)            :       15.000000239336 electrons
N(Total)           :       31.000000214992 electrons
E(X)               :      -15.572164736480 Eh       
E(C)               :       -1.364834435700 Eh       
E(XC)              :      -16.936999172180 Eh       
DFET-embed. en.    :        0.000000000000 Eh       

---------------
SCF CONVERGENCE
---------------

  Last Energy change         ...   -5.3047e-09  Tolerance :   1.0000e-08
  Last MAX-Density change    ...    0.0000e+00  Tolerance :   1.0000e-07
  Last RMS-Density change    ...    0.0000e+00  Tolerance :   5.0000e-09
  Last DIIS Error            ...    2.2512e-05  Tolerance :   5.0000e-07

             **** THE GBW FILE WAS UPDATED (pbeh-3c.gbw) ****
             **** DENSITY pbeh-3c.scfp WAS UPDATED ****
             **** ENERGY FILE WAS UPDATED (pbeh-3c.en.tmp) ****
----------------------
UHF SPIN CONTAMINATION
----------------------

Warning: in a DFT calculation there is little theoretical justification to 
         calculate <S**2> as in Hartree-Fock theory. We will do it anyways
         but you should keep in mind that the values have only limited relevance

Expectation value of <S**2>     :     0.755532
Ideal value S*(S+1) for S=0.5   :     0.750000
Deviation                       :     0.005532

             **** THE GBW FILE WAS UPDATED (pbeh-3c.gbw) ****
             **** DENSITY pbeh-3c.scfp WAS UPDATED ****
----------------
ORBITAL ENERGIES
----------------
                 SPIN UP ORBITALS
  NO   OCC          E(Eh)            E(eV) 
   0   1.0000     -19.577960      -532.7434 
   1   1.0000     -19.509634      -530.8841 
   2   1.0000     -10.595821      -288.3269 
   3   1.0000     -10.517970      -286.2085 
   4   1.0000      -1.247207       -33.9382 
   5   1.0000      -1.164784       -31.6954 
   6   1.0000      -0.821210       -22.3463 
   7   1.0000      -0.708265       -19.2729 
   8   1.0000      -0.620350       -16.8806 
   9   1.0000      -0.568709       -15.4753 
  10   1.0000      -0.550919       -14.9913 
  11   1.0000      -0.511326       -13.9139 
  12   1.0000      -0.449527       -12.2323 
  13   1.0000      -0.436289       -11.8720 
  14   1.0000      -0.359891        -9.7931 
  15   1.0000      -0.259599        -7.0640 
  16   0.0000       0.023126         0.6293 
  17   0.0000       0.131953         3.5906 
  18   0.0000       0.170627         4.6430 
  19   0.0000       0.186709         5.0806 
  20   0.0000       0.227726         6.1967 
  21   0.0000       0.311085         8.4650 
  22   0.0000       0.365826         9.9546 
  23   0.0000       0.450770        12.2661 
  24   0.0000       0.504821        13.7369 
  25   0.0000       0.526336        14.3223 
  26   0.0000       0.540760        14.7148 
  27   0.0000       0.580143        15.7865 
  28   0.0000       0.639922        17.4132 
  29   0.0000       0.724270        19.7084 
  30   0.0000       0.884863        24.0783 
  31   0.0000       0.922494        25.1023 
  32   0.0000       0.975585        26.5470 
  33   0.0000       1.001082        27.2408 
  34   0.0000       1.034877        28.1604 
  35   0.0000       1.040880        28.3238 
  36   0.0000       1.088630        29.6231 
  37   0.0000       1.162728        31.6394 
  38   0.0000       1.208981        32.8980 
  39   0.0000       1.365309        37.1520 
  40   0.0000       1.424007        38.7492 
  41   0.0000       1.473336        40.0915 
  42   0.0000       1.599956        43.5370 
  43   0.0000       1.686759        45.8990 
  44   0.0000       1.733483        47.1705 
  45   0.0000       1.797112        48.9019 
  46   0.0000       1.824855        49.6568 
  47   0.0000       1.901846        51.7518 
  48   0.0000       1.912854        52.0514 
  49   0.0000       2.014108        54.8067 
  50   0.0000       2.070462        56.3401 
  51   0.0000       2.190326        59.6018 
  52   0.0000       2.253885        61.3313 
  53   0.0000       2.269222        61.7487 
  54   0.0000       2.310219        62.8643 
  55   0.0000       2.493700        67.8570 
  56   0.0000       2.595136        70.6172 
  57   0.0000       2.693746        73.3006 
  58   0.0000       2.710943        73.7685 
  59   0.0000       2.914466        79.3066 
  60   0.0000       2.979485        81.0759 
  61   0.0000       3.175909        86.4209 
  62   0.0000      13.621983       370.6730 
  63   0.0000      13.856732       377.0609 
  64   0.0000      25.504513       694.0131 
  65   0.0000      25.620162       697.1601 

                 SPIN DOWN ORBITALS
  NO   OCC          E(Eh)            E(eV) 
   0   1.0000     -19.574760      -532.6563 
   1   1.0000     -19.508008      -530.8399 
   2   1.0000     -10.595956      -288.3306 
   3   1.0000     -10.501856      -285.7700 
   4   1.0000      -1.239133       -33.7185 
   5   1.0000      -1.159253       -31.5449 
   6   1.0000      -0.793061       -21.5803 
   7   1.0000      -0.698287       -19.0014 
   8   1.0000      -0.608485       -16.5577 
   9   1.0000      -0.562227       -15.2990 
  10   1.0000      -0.525139       -14.2898 
  11   1.0000      -0.506347       -13.7784 
  12   1.0000      -0.444422       -12.0933 
  13   1.0000      -0.407389       -11.0856 
  14   1.0000      -0.358153        -9.7458 
  15   0.0000      -0.026257        -0.7145 
  16   0.0000       0.039764         1.0820 
  17   0.0000       0.142574         3.8796 
  18   0.0000       0.188452         5.1280 
  19   0.0000       0.193743         5.2720 
  20   0.0000       0.233788         6.3617 
  21   0.0000       0.312238         8.4964 
  22   0.0000       0.368957        10.0398 
  23   0.0000       0.479179        13.0391 
  24   0.0000       0.507506        13.8099 
  25   0.0000       0.542715        14.7680 
  26   0.0000       0.586869        15.9695 
  27   0.0000       0.596247        16.2247 
  28   0.0000       0.657775        17.8990 
  29   0.0000       0.727560        19.7979 
  30   0.0000       0.892320        24.2812 
  31   0.0000       0.924610        25.1599 
  32   0.0000       0.985292        26.8112 
  33   0.0000       1.014795        27.6140 
  34   0.0000       1.041713        28.3465 
  35   0.0000       1.056238        28.7417 
  36   0.0000       1.096216        29.8295 
  37   0.0000       1.165093        31.7038 
  38   0.0000       1.211362        32.9628 
  39   0.0000       1.384456        37.6730 
  40   0.0000       1.427031        38.8315 
  41   0.0000       1.487447        40.4755 
  42   0.0000       1.623068        44.1659 
  43   0.0000       1.732681        47.1486 
  44   0.0000       1.736640        47.2564 
  45   0.0000       1.808048        49.1995 
  46   0.0000       1.831417        49.8354 
  47   0.0000       1.910571        51.9893 
  48   0.0000       1.914343        52.0919 
  49   0.0000       2.023777        55.0698 
  50   0.0000       2.099581        57.1325 
  51   0.0000       2.200142        59.8689 
  52   0.0000       2.272929        61.8495 
  53   0.0000       2.294746        62.4432 
  54   0.0000       2.317354        63.0584 
  55   0.0000       2.516994        68.4909 
  56   0.0000       2.597991        70.6949 
  57   0.0000       2.696339        73.3711 
  58   0.0000       2.720398        74.0258 
  59   0.0000       2.917605        79.3921 
  60   0.0000       2.981500        81.1307 
  61   0.0000       3.178128        86.4813 
  62   0.0000      13.643409       371.2560 
  63   0.0000      13.857510       377.0820 
  64   0.0000      25.508680       694.1265 
  65   0.0000      25.622354       697.2197 

                    ********************************
                    * MULLIKEN POPULATION ANALYSIS *
                    ********************************

--------------------------------------------
MULLIKEN ATOMIC CHARGES AND SPIN POPULATIONS
--------------------------------------------
   0 C :   -0.249385    1.027340
   1 O :   -0.371622    0.054634
   2 C :    0.329688   -0.012357
   3 H :    0.213103   -0.059369
   4 H :    0.239822   -0.061695
   5 O :   -0.319194    0.052117
   6 H :    0.157587   -0.000670
Sum of atomic charges         :    0.0000000
Sum of atomic spin populations:    1.0000000

-----------------------------------------------------
MULLIKEN REDUCED ORBITAL CHARGES AND SPIN POPULATIONS
-----------------------------------------------------
CHARGE
  0 C s       :     3.266154  s :     3.266154
      pz      :     1.102141  p :     2.929787
      px      :     0.785586
      py      :     1.042060
      dz2     :     0.006356  d :     0.053444
      dxz     :     0.007966
      dyz     :     0.001526
      dx2y2   :     0.018558
      dxy     :     0.019038
  1 O s       :     3.766505  s :     3.766505
      pz      :     1.707629  p :     4.570808
      px      :     1.228310
      py      :     1.634869
      dz2     :     0.004304  d :     0.034309
      dxz     :     0.006911
      dyz     :     0.004548
      dx2y2   :     0.005299
      dxy     :     0.013247
  2 C s       :     3.082709  s :     3.082709
      pz      :     0.762588  p :     2.458310
      px      :     0.774113
      py      :     0.921609
      dz2     :     0.007295  d :     0.129292
      dxz     :     0.025873
      dyz     :     0.004041
      dx2y2   :     0.044033
      dxy     :     0.048051
  3 H s       :     0.786897  s :     0.786897
  4 H s       :     0.760178  s :     0.760178
  5 O s       :     3.758816  s :     3.758816
      pz      :     1.363656  p :     4.527843
      px      :     1.447835
      py      :     1.716353
      dz2     :     0.002667  d :     0.032535
      dxz     :     0.011126
      dyz     :     0.001997
      dx2y2   :     0.008793
      dxy     :     0.007952
  6 H s       :     0.842413  s :     0.842413

SPIN
  0 C s       :     0.091541  s :     0.091541
      pz      :     0.876535  p :     0.938319
      px      :     0.022008
      py      :     0.039776
      dz2     :    -0.002800  d :    -0.002521
      dxz     :     0.000455
      dyz     :     0.000134
      dx2y2   :    -0.000144
      dxy     :    -0.000165
  1 O s       :     0.000708  s :     0.000708
      pz      :     0.072720  p :     0.049913
      px      :    -0.016990
      py      :    -0.005817
      dz2     :     0.000010  d :     0.004013
      dxz     :     0.004382
      dyz     :    -0.000398
      dx2y2   :    -0.000055
      dxy     :     0.000074
  2 C s       :    -0.001708  s :    -0.001708
      pz      :    -0.006244  p :    -0.012394
      px      :    -0.004226
      py      :    -0.001923
      dz2     :    -0.000021  d :     0.001745
      dxz     :     0.001663
      dyz     :     0.000326
      dx2y2   :    -0.000121
      dxy     :    -0.000102
  3 H s       :    -0.059369  s :    -0.059369
  4 H s       :    -0.061695  s :    -0.061695
  5 O s       :     0.001691  s :     0.001691
      pz      :     0.050878  p :     0.050864
      px      :    -0.000317
      py      :     0.000303
      dz2     :     0.000025  d :    -0.000438
      dxz     :    -0.000381
      dyz     :    -0.000068
      dx2y2   :    -0.000004
      dxy     :    -0.000010
  6 H s       :    -0.000670  s :    -0.000670


                     *******************************
                     * LOEWDIN POPULATION ANALYSIS *
                     *******************************

-------------------------------------------
LOEWDIN ATOMIC CHARGES AND SPIN POPULATIONS
-------------------------------------------
   0 C :   -0.169123    0.918027
   1 O :   -0.126587    0.095975
   2 C :    0.115355   -0.001275
   3 H :    0.120226   -0.029837
   4 H :    0.139892   -0.030560
   5 O :   -0.164124    0.048151
   6 H :    0.084361   -0.000482

----------------------------------------------------
LOEWDIN REDUCED ORBITAL CHARGES AND SPIN POPULATIONS
----------------------------------------------------
CHARGE
  0 C s       :     2.996685  s :     2.996685
      pz      :     1.098036  p :     3.062547
      px      :     0.893030
      py      :     1.071481
      dz2     :     0.009987  d :     0.109891
      dxz     :     0.016909
      dyz     :     0.003415
      dx2y2   :     0.038300
      dxy     :     0.041281
  1 O s       :     3.430661  s :     3.430661
      pz      :     1.668467  p :     4.618078
      px      :     1.282718
      py      :     1.666894
      dz2     :     0.008207  d :     0.077848
      dxz     :     0.017677
      dyz     :     0.005414
      dx2y2   :     0.015388
      dxy     :     0.031163
  2 C s       :     2.897422  s :     2.897422
      pz      :     0.768386  p :     2.703124
      px      :     0.943502
      py      :     0.991236
      dz2     :     0.016739  d :     0.284100
      dxz     :     0.052064
      dyz     :     0.006657
      dx2y2   :     0.097848
      dxy     :     0.110791
  3 H s       :     0.879774  s :     0.879774
  4 H s       :     0.860108  s :     0.860108
  5 O s       :     3.516780  s :     3.516780
      pz      :     1.345797  p :     4.588150
      px      :     1.517118
      py      :     1.725236
      dz2     :     0.006750  d :     0.059193
      dxz     :     0.014714
      dyz     :     0.002464
      dx2y2   :     0.017330
      dxy     :     0.017935
  6 H s       :     0.915639  s :     0.915639

SPIN
  0 C s       :     0.042034  s :     0.042034
      pz      :     0.843454  p :     0.876892
      px      :     0.013896
      py      :     0.019541
      dz2     :    -0.002449  d :    -0.000898
      dxz     :     0.002612
      dyz     :     0.000561
      dx2y2   :    -0.000836
      dxy     :    -0.000786
  1 O s       :     0.002637  s :     0.002637
      pz      :     0.090251  p :     0.079404
      px      :    -0.007402
      py      :    -0.003445
      dz2     :     0.000233  d :     0.013934
      dxz     :     0.011970
      dyz     :     0.000677
      dx2y2   :     0.000421
      dxy     :     0.000634
  2 C s       :    -0.000742  s :    -0.000742
      pz      :    -0.002325  p :    -0.005395
      px      :    -0.001888
      py      :    -0.001182
      dz2     :     0.000026  d :     0.004862
      dxz     :     0.004533
      dyz     :     0.000534
      dx2y2   :    -0.000153
      dxy     :    -0.000079
  3 H s       :    -0.029837  s :    -0.029837
  4 H s       :    -0.030560  s :    -0.030560
  5 O s       :     0.000911  s :     0.000911
      pz      :     0.047984  p :     0.047540
      px      :    -0.000400
      py      :    -0.000044
      dz2     :     0.000034  d :    -0.000301
      dxz     :    -0.000169
      dyz     :    -0.000084
      dx2y2   :    -0.000029
      dxy     :    -0.000054
  6 H s       :    -0.000482  s :    -0.000482


                      *****************************
                      * MAYER POPULATION ANALYSIS *
                      *****************************

  NA   - Mulliken gross atomic population
  ZA   - Total nuclear charge
  QA   - Mulliken gross atomic charge
  VA   - Mayer's total valence
  BVA  - Mayer's bonded valence
  FA   - Mayer's free valence

  ATOM       NA         ZA         QA         VA         BVA        FA
  0 C      6.2494     6.0000    -0.2494     3.7216     2.9341     0.7875
  1 O      8.3716     8.0000    -0.3716     2.2121     2.2020     0.0101
  2 C      5.6703     6.0000     0.3297     4.0495     4.0493     0.0002
  3 H      0.7869     1.0000     0.2131     0.9225     0.9191     0.0034
  4 H      0.7602     1.0000     0.2398     0.9211     0.9173     0.0037
  5 O      8.3192     8.0000    -0.3192     2.2703     2.2676     0.0027
  6 H      0.8424     1.0000     0.1576     0.9249     0.9249     0.0000

  Mayer bond orders larger than 0.100000
B(  0-C ,  1-O ) :   1.0717 B(  0-C ,  3-H ) :   0.8983 B(  0-C ,  4-H ) :   0.9131 
B(  1-O ,  2-C ) :   1.0304 B(  2-C ,  5-O ) :   2.1269 B(  2-C ,  6-H ) :   0.8701 


-------
TIMINGS
-------

Total SCF time: 0 days 0 hours 2 min 17 sec 

Total time                  ....     137.453 sec
Sum of individual times     ....     124.874 sec  ( 90.8%)

Fock matrix formation       ....     104.340 sec  ( 75.9%)
  Split-RI-J                ....       8.760 sec  (  8.4% of F)
  Chain of spheres X        ....      12.323 sec  ( 11.8% of F)
  XC integration            ....      34.045 sec  ( 32.6% of F)
    Basis function eval.    ....       0.999 sec  (  2.9% of XC)
    Density eval.           ....       1.262 sec  (  3.7% of XC)
    XC-Functional eval.     ....       1.218 sec  (  3.6% of XC)
    XC-Potential eval.      ....       0.699 sec  (  2.1% of XC)
Diagonalization             ....       2.195 sec  (  1.6%)
Density matrix formation    ....       0.238 sec  (  0.2%)
Population analysis         ....       1.856 sec  (  1.4%)
Initial guess               ....       0.003 sec  (  0.0%)
Orbital Transformation      ....       0.000 sec  (  0.0%)
Orbital Orthonormalization  ....       0.000 sec  (  0.0%)
DIIS solution               ....       9.318 sec  (  6.8%)
Grid generation             ....       6.923 sec  (  5.0%)

Maximum memory used throughout the entire SCF-calculation: 46.8 MB


-------------------------------------------------------------------------------
                          DFT DISPERSION CORRECTION                            
                                                                               
                              DFTD3 V3.1  Rev 1                                
                          USING Becke-Johnson damping                          
-------------------------------------------------------------------------------
The PBEh-3c composite method is recognized
Using three-body term ABC
Active option DFTDOPT                   ...         4   

molecular C6(AA) [au] = 485.622538 


            DFT-D V3
 parameters
 s6 scaling factor         :     1.0000 
 a1 scaling factor         :     0.4860 
 s8 scaling factor         :     0.0000 
 a2 scaling factor         :     4.5000 
 Damping factor alpha9(ATM):    16.0000 
 ad hoc parameters k1-k3   :    16.0000     1.3333    -4.0000 

 Edisp/kcal,au: -1.199181404073  -0.001911017006 
 E6   /kcal   :  -1.199350726 
 E8   /kcal   :  -0.000000000 
 E6(ABC)      :   0.000169322 
 % E8         :   0.000000000 
 % E6(ABC)    :  -0.014119806 

-------------------------   ----------------
Dispersion correction           -0.001911017
-------------------------   ----------------

------------------   -----------------
gCP correction             0.018318567
------------------   -----------------

-------------------------   --------------------
FINAL SINGLE POINT ENERGY      -227.899660874125
-------------------------   --------------------


                            ***************************************
                            *     ORCA property calculations      *
                            ***************************************

                                    ---------------------
                                    Active property flags
                                    ---------------------
   (+) Dipole Moment


------------------------------------------------------------------------------
                       ORCA ELECTRIC PROPERTIES CALCULATION
------------------------------------------------------------------------------

Dipole Moment Calculation                       ... on
Quadrupole Moment Calculation                   ... off
Polarizability Calculation                      ... off
GBWName                                         ... pbeh-3c.gbw
Electron density                                ... pbeh-3c.scfp
The origin for moment calculation is the CENTER OF MASS  = ( 1.117119,  0.574758  0.000000)

-------------
DIPOLE MOMENT
-------------
                                X             Y             Z
Electronic contribution:      2.70062       1.19479       0.00000
Nuclear contribution   :     -3.83036      -1.99503       0.00000
                        -----------------------------------------
Total Dipole Moment    :     -1.12974      -0.80024       0.00000
                        -----------------------------------------
Magnitude (a.u.)       :      1.38445
Magnitude (Debye)      :      3.51899



--------------------
Rotational spectrum 
--------------------
 
Rotational constants in cm-1:     1.902878     0.166193     0.152844 
Rotational constants in MHz : 57046.846223  4982.336348  4582.142851 

 Dipole components along the rotational axes: 
x,y,z [a.u.] :     1.129744    -0.800239     0.000000 
x,y,z [Debye]:     2.871582    -2.034045     0.000000 

 

Timings for individual modules:

Sum of individual times         ...      143.547 sec (=   2.392 min)
GTO integral calculation        ...        4.762 sec (=   0.079 min)   3.3 %
SCF iterations                  ...      138.786 sec (=   2.313 min)  96.7 %
                             ****ORCA TERMINATED NORMALLY****
TOTAL RUN TIME: 0 days 0 hours 2 minutes 40 seconds 306 msec
