
                                 *****************
                                 * O   R   C   A *
                                 *****************

                                            #,                                       
                                            ###                                      
                                            ####                                     
                                            #####                                    
                                            ######                                   
                                           ########,                                 
                                     ,,################,,,,,                         
                               ,,#################################,,                 
                          ,,##########################################,,             
                       ,#########################################, ''#####,          
                    ,#############################################,,   '####,        
                  ,##################################################,,,,####,       
                ,###########''''           ''''###############################       
              ,#####''   ,,,,##########,,,,          '''####'''          '####       
            ,##' ,,,,###########################,,,                        '##       
           ' ,,###''''                  '''############,,,                           
         ,,##''                                '''############,,,,        ,,,,,,###''
      ,#''                                            '''#######################'''  
     '                                                          ''''####''''         
             ,#######,   #######,   ,#######,      ##                                
            ,#'     '#,  ##    ##  ,#'     '#,    #''#        ######   ,####,        
            ##       ##  ##   ,#'  ##            #'  '#       #        #'  '#        
            ##       ##  #######   ##           ,######,      #####,   #    #        
            '#,     ,#'  ##    ##  '#,     ,#' ,#      #,         ##   #,  ,#        
             '#######'   ##     ##  '#######'  #'      '#     #####' # '####'        



                  #######################################################
                  #                        -***-                        #
                  #          Department of theory and spectroscopy      #
                  #    Directorship and core code : Frank Neese         #
                  #        Max Planck Institute fuer Kohlenforschung    #
                  #                Kaiser Wilhelm Platz 1               #
                  #                 D-45470 Muelheim/Ruhr               #
                  #                      Germany                        #
                  #                                                     #
                  #                  All rights reserved                #
                  #                        -***-                        #
                  #######################################################


                         Program Version 5.0.3 -  RELEASE  -


 With contributions from (in alphabetic order):
   Daniel Aravena         : Magnetic Suceptibility
   Michael Atanasov       : Ab Initio Ligand Field Theory (pilot matlab implementation)
   Alexander A. Auer      : GIAO ZORA, VPT2 properties, NMR spectrum
   Ute Becker             : Parallelization
   Giovanni Bistoni       : ED, misc. LED, open-shell LED, HFLD
   Martin Brehm           : Molecular dynamics
   Dmytro Bykov           : SCF Hessian
   Vijay G. Chilkuri      : MRCI spin determinant printing, contributions to CSF-ICE
   Dipayan Datta          : RHF DLPNO-CCSD density
   Achintya Kumar Dutta   : EOM-CC, STEOM-CC
   Dmitry Ganyushin       : Spin-Orbit,Spin-Spin,Magnetic field MRCI
   Miquel Garcia          : C-PCM and meta-GGA Hessian, CC/C-PCM, Gaussian charge scheme
   Yang Guo               : DLPNO-NEVPT2, F12-NEVPT2, CIM, IAO-localization
   Andreas Hansen         : Spin unrestricted coupled pair/coupled cluster methods
   Benjamin Helmich-Paris : MC-RPA, TRAH-SCF, COSX integrals
   Lee Huntington         : MR-EOM, pCC
   Robert Izsak           : Overlap fitted RIJCOSX, COSX-SCS-MP3, EOM
   Marcus Kettner         : VPT2
   Christian Kollmar      : KDIIS, OOCD, Brueckner-CCSD(T), CCSD density, CASPT2, CASPT2-K
   Simone Kossmann        : Meta GGA functionals, TD-DFT gradient, OOMP2, MP2 Hessian
   Martin Krupicka        : Initial AUTO-CI
   Lucas Lang             : DCDCAS
   Marvin Lechner         : AUTO-CI (C++ implementation), FIC-MRCC
   Dagmar Lenk            : GEPOL surface, SMD
   Dimitrios Liakos       : Extrapolation schemes; Compound Job, initial MDCI parallelization
   Dimitrios Manganas     : Further ROCIS development; embedding schemes
   Dimitrios Pantazis     : SARC Basis sets
   Anastasios Papadopoulos: AUTO-CI, single reference methods and gradients
   Taras Petrenko         : DFT Hessian,TD-DFT gradient, ASA, ECA, R-Raman, ABS, FL, XAS/XES, NRVS
   Peter Pinski           : DLPNO-MP2, DLPNO-MP2 Gradient
   Christoph Reimann      : Effective Core Potentials
   Marius Retegan         : Local ZFS, SOC
   Christoph Riplinger    : Optimizer, TS searches, QM/MM, DLPNO-CCSD(T), (RO)-DLPNO pert. Triples
   Tobias Risthaus        : Range-separated hybrids, TD-DFT gradient, RPA, STAB
   Michael Roemelt        : Original ROCIS implementation
   Masaaki Saitow         : Open-shell DLPNO-CCSD energy and density
   Barbara Sandhoefer     : DKH picture change effects
   Avijit Sen             : IP-ROCIS
   Kantharuban Sivalingam : CASSCF convergence, NEVPT2, FIC-MRCI
   Bernardo de Souza      : ESD, SOC TD-DFT
   Georgi Stoychev        : AutoAux, RI-MP2 NMR, DLPNO-MP2 response
   Willem Van den Heuvel  : Paramagnetic NMR
   Boris Wezisla          : Elementary symmetry handling
   Frank Wennmohs         : Technical directorship


 We gratefully acknowledge several colleagues who have allowed us to
 interface, adapt or use parts of their codes:
   Stefan Grimme, W. Hujo, H. Kruse, P. Pracht,  : VdW corrections, initial TS optimization,
                  C. Bannwarth, S. Ehlert          DFT functionals, gCP, sTDA/sTD-DF
   Ed Valeev, F. Pavosevic, A. Kumar             : LibInt (2-el integral package), F12 methods
   Garnet Chan, S. Sharma, J. Yang, R. Olivares  : DMRG
   Ulf Ekstrom                                   : XCFun DFT Library
   Mihaly Kallay                                 : mrcc  (arbitrary order and MRCC methods)
   Jiri Pittner, Ondrej Demel                    : Mk-CCSD
   Frank Weinhold                                : gennbo (NPA and NBO analysis)
   Christopher J. Cramer and Donald G. Truhlar   : smd solvation model
   Lars Goerigk                                  : TD-DFT with DH, B97 family of functionals
   V. Asgeirsson, H. Jonsson                     : NEB implementation
   FAccTs GmbH                                   : IRC, NEB, NEB-TS, DLPNO-Multilevel, CI-OPT
                                                   MM, QMMM, 2- and 3-layer-ONIOM, Crystal-QMMM,
                                                   LR-CPCM, SF, NACMEs, symmetry and pop. for TD-DFT,
                                                   nearIR, NL-DFT gradient (VV10), updates on ESD,
                                                   ML-optimized integration grids
   S Lehtola, MJT Oliveira, MAL Marques          : LibXC Library
   Liviu Ungur et al                             : ANISO software


 Your calculation uses the libint2 library for the computation of 2-el integrals
 For citations please refer to: http://libint.valeyev.net

 Your ORCA version has been built with support for libXC version: 5.1.0
 For citations please refer to: https://tddft.org/programs/libxc/

 This ORCA versions uses:
   CBLAS   interface :  Fast vector & matrix operations
   LAPACKE interface :  Fast linear algebra routines
   SCALAPACK package :  Parallel linear algebra routines
   Shared memory     :  Shared parallel matrices
   BLAS/LAPACK       :  OpenBLAS 0.3.15  USE64BITINT DYNAMIC_ARCH NO_AFFINITY Haswell SINGLE_THREADED
        Core in use  :  Haswell
   Copyright (c) 2011-2014, The OpenBLAS Project




***************************************
The coordinates will be read from file: EA_23.xyz
***************************************


Your calculation utilizes the geometrical counterpoise correction gCP
Please cite in your paper:
H.Kruse, S. Grimme J.Chem.Phys., 136, (2012), 154101 
   

Your calculation utilizes the atom-pairwise dispersion correction
with the Becke-Johnson damping scheme (D3BJ)
Cite in your paper:
S.Grimme, S.Ehrlich, L.Goerigk, J Comput Chem, (2011), 32, 1456–1465 
S.Grimme, J.Antony, S.Ehrlich and H.Krieg, J.Chem.Phys., 132, (2010), 154104 
   

Your calculation employs the composite approach PBEh-3c.
Please cite in your paper:
S. Grimme, J. G. Brandenburg, C. Bannwarth, A. Hansen J.Chem.Phys., 143, (2015), 054107 
   

================================================================================

----- Orbital basis set information -----
Your calculation utilizes the basis: def2-mSVP

----- AuxJ basis set information -----
Your calculation utilizes the auxiliary basis: def2/J
   F. Weigend, Phys. Chem. Chem. Phys. 8, 1057 (2006).

================================================================================
                                        WARNINGS
                       Please study these warnings very carefully!
================================================================================


WARNING: your system is open-shell and RHF/RKS was chosen
  ===> : WILL SWITCH to UHF/UKS


INFO   : the flag for use of the SHARK integral package has been found!

================================================================================
                                       INPUT FILE
================================================================================
NAME = pbeh-3c.inp
|  1> ! PBEh-3c def2/J TightSCF DefGrid3
|  2> 
|  3> %maxcore 60000
|  4> 
|  5> %pal
|  6> nprocs 4
|  7> end
|  8> 
|  9> *xyzfile -1 3 EA_23.xyz
| 10> 
| 11>                          ****END OF INPUT****
================================================================================

                       ****************************
                       * Single Point Calculation *
                       ****************************

---------------------------------
CARTESIAN COORDINATES (ANGSTROEM)
---------------------------------
  P      0.000000    0.000000    0.782308
  O      0.000000    0.000000   -0.782308

----------------------------
CARTESIAN COORDINATES (A.U.)
----------------------------
  NO LB      ZA    FRAG     MASS         X           Y           Z
   0 P    15.0000    0    30.974    0.000000    0.000000    1.478348
   1 O     8.0000    0    15.999    0.000000    0.000000   -1.478348

--------------------------------
INTERNAL COORDINATES (ANGSTROEM)
--------------------------------
 P      0   0   0     0.000000000000     0.00000000     0.00000000
 O      1   0   0     1.564616200000     0.00000000     0.00000000

---------------------------
INTERNAL COORDINATES (A.U.)
---------------------------
 P      0   0   0     0.000000000000     0.00000000     0.00000000
 O      1   0   0     2.956696122697     0.00000000     0.00000000

---------------------
BASIS SET INFORMATION
---------------------
There are 2 groups of distinct atoms

 Group   1 Type P   : 10s7p1d contracted to 4s3p1d pattern {5311/511/1}
 Group   2 Type O   : 8s4p1d contracted to 4s2p1d pattern {5111/31/1}

Atom   0P    basis set group =>   1
Atom   1O    basis set group =>   2
---------------------------------
AUXILIARY/J BASIS SET INFORMATION
---------------------------------
There are 2 groups of distinct atoms

 Group   1 Type P   : 14s5p5d2f1g contracted to 8s4p3d1f1g pattern {71111111/2111/311/2/1}
 Group   2 Type O   : 12s5p4d2f1g contracted to 6s4p3d1f1g pattern {711111/2111/211/2/1}

Atom   0P    basis set group =>   1
Atom   1O    basis set group =>   2


           ************************************************************
           *        Program running with 4 parallel MPI-processes     *
           *              working on a common directory               *
           ************************************************************
------------------------------------------------------------------------------
                           ORCA GTO INTEGRAL CALCULATION
                           -- RI-GTO INTEGRALS CHOSEN --
------------------------------------------------------------------------------
------------------------------------------------------------------------------
                   ___                                                        
                  /   \      - P O W E R E D   B Y -                         
                 /     \                                                     
                 |  |  |   _    _      __       _____    __    __             
                 |  |  |  | |  | |    /  \     |  _  \  |  |  /  |          
                  \  \/   | |  | |   /    \    | | | |  |  | /  /          
                 / \  \   | |__| |  /  /\  \   | |_| |  |  |/  /          
                |  |  |   |  __  | /  /__\  \  |    /   |      \           
                |  |  |   | |  | | |   __   |  |    \   |  |\   \          
                \     /   | |  | | |  |  |  |  | |\  \  |  | \   \       
                 \___/    |_|  |_| |__|  |__|  |_| \__\ |__|  \__/        
                                                                              
                      - O R C A' S   B I G   F R I E N D -                    
                                      &                                       
                       - I N T E G R A L  F E E D E R -                       
                                                                              
 v1 FN, 2020, v2 2021                                                         
------------------------------------------------------------------------------


Reading SHARK input file pbeh-3c.SHARKINP.tmp ... ok
----------------------
SHARK INTEGRAL PACKAGE
----------------------

Number of atoms                             ...      2
Number of basis functions                   ...     33
Number of shells                            ...     15
Maximum angular momentum                    ...      2
Integral batch strategy                     ... SHARK/LIBINT Hybrid
RI-J (if used) integral strategy            ... SPLIT-RIJ (Revised 2003 algorithm where possible)
Printlevel                                  ...      1
Contraction scheme used                     ... SEGMENTED contraction
Coulomb Range Separation                    ... NOT USED
Exchange Range Separation                   ... NOT USED
Finite Nucleus Model                        ... NOT USED
Auxiliary Coulomb fitting basis             ... AVAILABLE
   # of basis functions in Aux-J            ...    100
   # of shells in Aux-J                     ...     32
   Maximum angular momentum in Aux-J        ...      4
Auxiliary J/K fitting basis                 ... NOT available
Auxiliary Correlation fitting basis         ... NOT available
Auxiliary 'external' fitting basis          ... NOT available
Integral threshold                          ...     2.500000e-11
Primitive cut-off                           ...     2.500000e-12
Primitive pair pre-selection threshold      ...     2.500000e-12

Calculating pre-screening integrals         ... done (  0.0 sec) Dimension = 15
Organizing shell pair data                  ... done (  0.0 sec)
Shell pair information
Total number of shell pairs                 ...       120
Shell pairs after pre-screening             ...       118
Total number of primitive shell pairs       ...       532
Primitive shell pairs kept                  ...       453
          la=0 lb=0:     34 shell pairs
          la=1 lb=0:     40 shell pairs
          la=1 lb=1:     15 shell pairs
          la=2 lb=0:     16 shell pairs
          la=2 lb=1:     10 shell pairs
          la=2 lb=2:      3 shell pairs

Calculating one electron integrals          ... done (  0.0 sec)
Calculating RI/J V-Matrix + Cholesky decomp.... done (  0.1 sec)
Calculating Nuclear repulsion               ... done (  0.0 sec) ENN=     40.585841432551 Eh

SHARK setup successfully completed in   0.6 seconds

Maximum memory used throughout the entire GTOINT-calculation: 8.8 MB


           ************************************************************
           *        Program running with 4 parallel MPI-processes     *
           *              working on a common directory               *
           ************************************************************
-------------------------------------------------------------------------------
                                 ORCA SCF
-------------------------------------------------------------------------------

------------
SCF SETTINGS
------------
Hamiltonian:
 Density Functional     Method          .... DFT(GTOs)
 Exchange Functional    Exchange        .... PBE
   PBE kappa parameter   XKappa         ....  1.024500
   PBE mue parameter    XMuePBE         ....  0.123457
 Correlation Functional Correlation     .... PBE
   PBE beta parameter  CBetaPBE         ....  0.030000
 LDA part of GGA corr.  LDAOpt          .... PW91-LDA
 Gradients option       PostSCFGGA      .... off
 Hybrid DFT is turned on
   Fraction HF Exchange ScalHFX         ....  0.420000
   Scaling of DF-GGA-X  ScalDFX         ....  0.580000
   Scaling of DF-GGA-C  ScalDFC         ....  1.000000
   Scaling of DF-LDA-C  ScalLDAC        ....  1.000000
   Perturbative correction              ....  0.000000
   Density functional embedding theory  .... OFF
 RI-approximation to the Coulomb term is turned on
   Number of AuxJ basis functions       .... 100
   RIJ-ON(X) (HFX calculated with O(N)) .... on
   Number of AuxJ basis functions       .... 100
   RIJ-COSX (HFX calculated with COS-X)).... on


General Settings:
 Integral files         IntName         .... pbeh-3c
 Hartree-Fock type      HFTyp           .... UHF
 Total Charge           Charge          ....   -1
 Multiplicity           Mult            ....    3
 Number of Electrons    NEL             ....   24
 Basis Dimension        Dim             ....   33
 Nuclear Repulsion      ENuc            ....     40.5858414326 Eh

Convergence Acceleration:
 DIIS                   CNVDIIS         .... on
   Start iteration      DIISMaxIt       ....    12
   Startup error        DIISStart       ....  0.200000
   # of expansion vecs  DIISMaxEq       ....     5
   Bias factor          DIISBfac        ....   1.050
   Max. coefficient     DIISMaxC        ....  10.000
 Trust-Rad. Augm. Hess. CNVTRAH         .... auto
   Auto Start mean grad. ratio tolernc. ....  1.125000
   Auto Start start iteration           ....    20
   Auto Start num. interpolation iter.  ....    10
   Max. Number of Micro iterations      ....    16
   Max. Number of Macro iterations      .... Maxiter - #DIIS iter
   Number of Davidson start vectors     ....     2
   Converg. threshold I  (grad. norm)   ....   1.000e-05
   Converg. threshold II (energy diff.) ....   1.000e-08
   Grad. Scal. Fac. for Micro threshold ....   0.100
   Minimum threshold for Micro iter.    ....   0.010
   NR start threshold (gradient norm)   ....   0.001
   Initial trust radius                 ....   0.400
   Minimum AH scaling param. (alpha)    ....   1.000
   Maximum AH scaling param. (alpha)    .... 1000.000
   Orbital update algorithm             .... Taylor
   White noise on init. David. guess    .... on
   Maximum white noise                  ....   0.010
   Quad. conv. algorithm                .... NR
   COSX micro iterations for RIJONX calc.... off
 SOSCF                  CNVSOSCF        .... off
 Level Shifting         CNVShift        .... on
   Level shift para.    LevelShift      ....    0.2500
   Turn off err/grad.   ShiftErr        ....    0.0010
 Zerner damping         CNVZerner       .... off
 Static damping         CNVDamp         .... on
   Fraction old density DampFac         ....    0.7000
   Max. Damping (<1)    DampMax         ....    0.9800
   Min. Damping (>=0)   DampMin         ....    0.0000
   Turn off err/grad.   DampErr         ....    0.1000
 Fernandez-Rico         CNVRico         .... off

SCF Procedure:
 Maximum # iterations   MaxIter         ....   125
 SCF integral mode      SCFMode         .... Direct
   Integral package                     .... SHARK and LIBINT hybrid scheme
 Reset frequency        DirectResetFreq ....    20
 Integral Threshold     Thresh          ....  2.500e-11 Eh
 Primitive CutOff       TCut            ....  2.500e-12 Eh

Convergence Tolerance:
 Convergence Check Mode ConvCheckMode   .... Total+1el-Energy
 Convergence forced     ConvForced      .... 0
 Energy Change          TolE            ....  1.000e-08 Eh
 1-El. energy change                    ....  1.000e-05 Eh
 DIIS Error             TolErr          ....  5.000e-07


Diagonalization of the overlap matrix:
Smallest eigenvalue                        ... 3.861e-02
Time for diagonalization                   ...    0.001 sec
Threshold for overlap eigenvalues          ... 1.000e-08
Number of eigenvalues below threshold      ... 0
Time for construction of square roots      ...    0.007 sec
Total time needed                          ...    0.008 sec

--------------------------------
INITIAL GUESS: MINIMAL BASIS EHT
--------------------------------
The minimal basis has 14 functions
EHT matrix was diagonalized
Basis set overlap was calculated now projecting the orbitals
Using GuessMode=FMatrix for the initial guess
C*T matrix was formed
Effective Fockian was calculated
Effective Fockian was diagonalized
Initial density was built
                      ------------------
                      INITIAL GUESS DONE
                      ------------------
-------------------
DFT GRID GENERATION
-------------------

General Integration Accuracy     IntAcc      ... 4.959
Radial Grid Type                 RadialGrid  ... OptM3 with GC (2021)
Angular Grid (max. ang.)         AngularGrid ... 6 (Lebedev-590)
Angular grid pruning method      GridPruning ... 4 (adaptive)
Weight generation scheme         WeightScheme... Becke
Basis function cutoff            BFCut       ... 1.0000e-11
Integration weight cutoff        WCut        ... 1.0000e-14
Angular grids for H and He will be reduced by one unit
Partially contracted basis set               ... off
Rotationally invariant grid construction     ... off

Total number of grid points                  ...    30834
Total number of batches                      ...      482
Average number of points per batch           ...       63
Average number of grid points per atom       ...    15417
Time for grid setup =    0.797 sec

--------------------
COSX GRID GENERATION
--------------------

GRIDX 1
-------
General Integration Accuracy     IntAcc      ... 4.020
Radial Grid Type                 RadialGrid  ... OptM3 with GC (2021)
Angular Grid (max. ang.)         AngularGrid ... 2 (Lebedev-110)
Angular grid pruning method      GridPruning ... 4 (adaptive)
Weight generation scheme         WeightScheme... Becke
Basis function cutoff            BFCut       ... 1.0000e-11
Integration weight cutoff        WCut        ... 1.0000e-14
Angular grids for H and He will be reduced by one unit
Partially contracted basis set               ... on
Rotationally invariant grid construction     ... off

Total number of grid points                  ...     3852
Total number of batches                      ...       61
Average number of points per batch           ...       63
Average number of grid points per atom       ...     1926
UseSFitting                                  ... on

GRIDX 2
-------
General Integration Accuracy     IntAcc      ... 4.338
Radial Grid Type                 RadialGrid  ... OptM3 with GC (2021)
Angular Grid (max. ang.)         AngularGrid ... 3 (Lebedev-194)
Angular grid pruning method      GridPruning ... 4 (adaptive)
Weight generation scheme         WeightScheme... Becke
Basis function cutoff            BFCut       ... 1.0000e-11
Integration weight cutoff        WCut        ... 1.0000e-14
Angular grids for H and He will be reduced by one unit
Partially contracted basis set               ... on
Rotationally invariant grid construction     ... off

Total number of grid points                  ...     9231
Total number of batches                      ...      145
Average number of points per batch           ...       63
Average number of grid points per atom       ...     4616
UseSFitting                                  ... on

GRIDX 3
-------
General Integration Accuracy     IntAcc      ... 4.871
Radial Grid Type                 RadialGrid  ... OptM3 with GC (2021)
Angular Grid (max. ang.)         AngularGrid ... 4 (Lebedev-302)
Angular grid pruning method      GridPruning ... 4 (adaptive)
Weight generation scheme         WeightScheme... Becke
Basis function cutoff            BFCut       ... 1.0000e-11
Integration weight cutoff        WCut        ... 1.0000e-14
Angular grids for H and He will be reduced by one unit
Partially contracted basis set               ... on
Rotationally invariant grid construction     ... off

Total number of grid points                  ...    16099
Total number of batches                      ...      253
Average number of points per batch           ...       63
Average number of grid points per atom       ...     8050
UseSFitting                                  ... on

Time for X-Grid setup             =    0.790 sec

--------------
SCF ITERATIONS
--------------
ITER       Energy         Delta-E        Max-DP      RMS-DP      [F,P]     Damp
               ***  Starting incremental Fock matrix formation  ***
  0   -415.0717978638   0.000000000000 0.13294931  0.01241774  0.3855676 0.7000
  1   -415.4238042635  -0.352006399687 0.09211006  0.00704035  0.1638171 0.7000
                               ***Turning on DIIS***
  2   -415.5880563996  -0.164252136124 0.06548264  0.00419283  0.1004852 0.7000
  3   -415.7058186905  -0.117762290857 0.15192517  0.00892113  0.0656964 0.0000
  4   -415.9843439917  -0.278525301236 0.04478892  0.00206869  0.0284311 0.0000
  5   -415.9889335702  -0.004589578518 0.01037469  0.00062358  0.0119860 0.0000
  6   -415.9896055614  -0.000671991175 0.00652701  0.00034896  0.0031580 0.0000
  7   -415.9897060573  -0.000100495922 0.00384336  0.00017716  0.0012397 0.0000
  8   -415.9897271617  -0.000021104403 0.00157954  0.00009737  0.0005927 0.0000
               *** Restarting incremental Fock matrix formation ***
                                   *** Resetting DIIS ***
  9   -415.9897138987   0.000013263094 0.00030872  0.00001975  0.0002732 0.0000
 10   -415.9897140268  -0.000000128113 0.00016541  0.00001050  0.0002405 0.0000
 11   -415.9897142277  -0.000000200969 0.00014098  0.00000846  0.0001162 0.0000
 12   -415.9897142876  -0.000000059826 0.00002363  0.00000171  0.0000112 0.0000
 13   -415.9897142897  -0.000000002151 0.00000859  0.00000037  0.0000032 0.0000
 14   -415.9897142899  -0.000000000177 0.00000234  0.00000012  0.0000011 0.0000
                 **** Energy Check signals convergence ****

               *****************************************************
               *                     SUCCESS                       *
               *           SCF CONVERGED AFTER  15 CYCLES          *
               *****************************************************

Old exchange energy                            =    -13.061929647 Eh
New exchange energy                            =    -13.061930786 Eh
Exchange energy change after final integration =     -0.000001139 Eh
Total energy after final integration           =   -415.989715429 Eh
Final COS-X integration done in                =     0.265 sec

----------------
TOTAL SCF ENERGY
----------------

Total Energy       :         -415.98971543 Eh          -11319.65564 eV

Components:
Nuclear Repulsion  :           40.58584143 Eh            1104.39689 eV
Electronic Energy  :         -456.57555686 Eh          -12424.05253 eV
One Electron Energy:         -663.25746057 Eh          -18048.15305 eV
Two Electron Energy:          206.68190371 Eh            5624.10052 eV
Max COSX asymmetry :            0.00000048 Eh               0.00001 eV

Virial components:
Potential Energy   :         -831.09389049 Eh          -22615.21450 eV
Kinetic Energy     :          415.10417506 Eh           11295.55886 eV
Virial Ratio       :            2.00213330


DFT components:
N(Alpha)           :       12.999992001760 electrons
N(Beta)            :       10.999998970450 electrons
N(Total)           :       23.999990972209 electrons
E(X)               :      -17.429400773289 Eh       
E(C)               :       -1.151728258733 Eh       
E(XC)              :      -18.581129032022 Eh       
DFET-embed. en.    :        0.000000000000 Eh       

---------------
SCF CONVERGENCE
---------------

  Last Energy change         ...    5.0250e-10  Tolerance :   1.0000e-08
  Last MAX-Density change    ...    0.0000e+00  Tolerance :   1.0000e-07
  Last RMS-Density change    ...    0.0000e+00  Tolerance :   5.0000e-09
  Last DIIS Error            ...    2.1553e-07  Tolerance :   5.0000e-07

             **** THE GBW FILE WAS UPDATED (pbeh-3c.gbw) ****
             **** DENSITY pbeh-3c.scfp WAS UPDATED ****
             **** ENERGY FILE WAS UPDATED (pbeh-3c.en.tmp) ****
----------------------
UHF SPIN CONTAMINATION
----------------------

Warning: in a DFT calculation there is little theoretical justification to 
         calculate <S**2> as in Hartree-Fock theory. We will do it anyways
         but you should keep in mind that the values have only limited relevance

Expectation value of <S**2>     :     2.009044
Ideal value S*(S+1) for S=1.0   :     2.000000
Deviation                       :     0.009044

             **** THE GBW FILE WAS UPDATED (pbeh-3c.gbw) ****
             **** DENSITY pbeh-3c.scfp WAS UPDATED ****
----------------
ORBITAL ENERGIES
----------------
                 SPIN UP ORBITALS
  NO   OCC          E(Eh)            E(eV) 
   0   1.0000     -77.469177     -2108.0435 
   1   1.0000     -19.203182      -522.5451 
   2   1.0000      -6.538707      -177.9273 
   3   1.0000      -4.632406      -126.0542 
   4   1.0000      -4.632406      -126.0542 
   5   1.0000      -4.627738      -125.9272 
   6   1.0000      -0.792931       -21.5767 
   7   1.0000      -0.331211        -9.0127 
   8   1.0000      -0.152950        -4.1620 
   9   1.0000      -0.152950        -4.1620 
  10   1.0000      -0.136971        -3.7272 
  11   1.0000       0.046094         1.2543 
  12   1.0000       0.046094         1.2543 
  13   0.0000       0.352104         9.5812 
  14   0.0000       0.523654        14.2494 
  15   0.0000       0.832841        22.6628 
  16   0.0000       0.832841        22.6628 
  17   0.0000       0.861060        23.4306 
  18   0.0000       0.861063        23.4307 
  19   0.0000       0.883119        24.0309 
  20   0.0000       0.932826        25.3835 
  21   0.0000       0.932826        25.3835 
  22   0.0000       1.122860        30.5546 
  23   0.0000       1.331717        36.2379 
  24   0.0000       1.331717        36.2379 
  25   0.0000       1.431618        38.9563 
  26   0.0000       2.068790        56.2947 
  27   0.0000       2.146262        58.4028 
  28   0.0000       2.146295        58.4036 
  29   0.0000       2.344991        63.8105 
  30   0.0000       2.344991        63.8105 
  31   0.0000       2.981142        81.1210 
  32   0.0000      25.662733       698.3185 

                 SPIN DOWN ORBITALS
  NO   OCC          E(Eh)            E(eV) 
   0   1.0000     -77.463125     -2107.8788 
   1   1.0000     -19.183535      -522.0105 
   2   1.0000      -6.532254      -177.7517 
   3   1.0000      -4.624829      -125.8480 
   4   1.0000      -4.618467      -125.6749 
   5   1.0000      -4.618467      -125.6749 
   6   1.0000      -0.746511       -20.3136 
   7   1.0000      -0.264999        -7.2110 
   8   1.0000      -0.098976        -2.6933 
   9   1.0000      -0.075907        -2.0655 
  10   1.0000      -0.075907        -2.0655 
  11   0.0000       0.243867         6.6359 
  12   0.0000       0.243867         6.6359 
  13   0.0000       0.378268        10.2932 
  14   0.0000       0.552176        15.0255 
  15   0.0000       0.874238        23.7892 
  16   0.0000       0.874238        23.7892 
  17   0.0000       0.895605        24.3706 
  18   0.0000       0.935109        25.4456 
  19   0.0000       0.935111        25.4457 
  20   0.0000       0.982042        26.7227 
  21   0.0000       0.982042        26.7227 
  22   0.0000       1.141451        31.0605 
  23   0.0000       1.372367        37.3440 
  24   0.0000       1.372367        37.3440 
  25   0.0000       1.452961        39.5371 
  26   0.0000       2.091445        56.9111 
  27   0.0000       2.184324        59.4385 
  28   0.0000       2.184347        59.4391 
  29   0.0000       2.370391        64.5016 
  30   0.0000       2.370391        64.5016 
  31   0.0000       3.002587        81.7046 
  32   0.0000      25.688512       699.0200 

                    ********************************
                    * MULLIKEN POPULATION ANALYSIS *
                    ********************************

--------------------------------------------
MULLIKEN ATOMIC CHARGES AND SPIN POPULATIONS
--------------------------------------------
   0 P :   -0.287680    1.456515
   1 O :   -0.712320    0.543485
Sum of atomic charges         :   -1.0000000
Sum of atomic spin populations:    2.0000000

-----------------------------------------------------
MULLIKEN REDUCED ORBITAL CHARGES AND SPIN POPULATIONS
-----------------------------------------------------
CHARGE
  0 P s       :     5.871122  s :     5.871122
      pz      :     2.707588  p :     9.269230
      px      :     3.280821
      py      :     3.280821
      dz2     :     0.050506  d :     0.147328
      dxz     :     0.048411
      dyz     :     0.048411
      dx2y2   :     0.000000
      dxy     :     0.000000
  1 O s       :     3.851213  s :     3.851213
      pz      :     1.511619  p :     4.842168
      px      :     1.665274
      py      :     1.665274
      dz2     :     0.007951  d :     0.018939
      dxz     :     0.005494
      dyz     :     0.005494
      dx2y2   :     0.000000
      dxy     :     0.000000

SPIN
  0 P s       :     0.014344  s :     0.014344
      pz      :    -0.035643  p :     1.421662
      px      :     0.728652
      py      :     0.728652
      dz2     :     0.004606  d :     0.020509
      dxz     :     0.007951
      dyz     :     0.007951
      dx2y2   :     0.000000
      dxy     :     0.000000
  1 O s       :     0.014310  s :     0.014310
      pz      :     0.002247  p :     0.532058
      px      :     0.264906
      py      :     0.264906
      dz2     :     0.000136  d :    -0.002882
      dxz     :    -0.001509
      dyz     :    -0.001509
      dx2y2   :    -0.000000
      dxy     :     0.000000


                     *******************************
                     * LOEWDIN POPULATION ANALYSIS *
                     *******************************

-------------------------------------------
LOEWDIN ATOMIC CHARGES AND SPIN POPULATIONS
-------------------------------------------
   0 P :   -0.392745    1.436112
   1 O :   -0.607255    0.563888

----------------------------------------------------
LOEWDIN REDUCED ORBITAL CHARGES AND SPIN POPULATIONS
----------------------------------------------------
CHARGE
  0 P s       :     5.776689  s :     5.776689
      pz      :     2.863568  p :     9.387508
      px      :     3.261970
      py      :     3.261970
      dz2     :     0.096158  d :     0.228548
      dxz     :     0.066195
      dyz     :     0.066195
      dx2y2   :     0.000000
      dxy     :     0.000000
  1 O s       :     3.669383  s :     3.669383
      pz      :     1.578849  p :     4.904039
      px      :     1.662595
      py      :     1.662595
      dz2     :     0.015353  d :     0.033833
      dxz     :     0.009240
      dyz     :     0.009240
      dx2y2   :     0.000000
      dxy     :     0.000000

SPIN
  0 P s       :     0.012898  s :     0.012898
      pz      :    -0.035385  p :     1.380647
      px      :     0.708016
      py      :     0.708016
      dz2     :     0.007446  d :     0.042567
      dxz     :     0.017561
      dyz     :     0.017561
      dx2y2   :     0.000000
      dxy     :     0.000000
  1 O s       :     0.011610  s :     0.011610
      pz      :     0.003159  p :     0.548663
      px      :     0.272752
      py      :     0.272752
      dz2     :     0.000273  d :     0.003616
      dxz     :     0.001671
      dyz     :     0.001671
      dx2y2   :    -0.000000
      dxy     :     0.000000


                      *****************************
                      * MAYER POPULATION ANALYSIS *
                      *****************************

  NA   - Mulliken gross atomic population
  ZA   - Total nuclear charge
  QA   - Mulliken gross atomic charge
  VA   - Mayer's total valence
  BVA  - Mayer's bonded valence
  FA   - Mayer's free valence

  ATOM       NA         ZA         QA         VA         BVA        FA
  0 P     15.2877    15.0000    -0.2877     2.8812     1.7440     1.1371
  1 O      8.7123     8.0000    -0.7123     1.9113     1.7440     0.1673

  Mayer bond orders larger than 0.100000
B(  0-P ,  1-O ) :   1.7440 

-------
TIMINGS
-------

Total SCF time: 0 days 0 hours 0 min 21 sec 

Total time                  ....      21.790 sec
Sum of individual times     ....      19.631 sec  ( 90.1%)

Fock matrix formation       ....      16.686 sec  ( 76.6%)
  Split-RI-J                ....       1.568 sec  (  9.4% of F)
  Chain of spheres X        ....       2.586 sec  ( 15.5% of F)
  XC integration            ....       5.707 sec  ( 34.2% of F)
    Basis function eval.    ....       0.213 sec  (  3.7% of XC)
    Density eval.           ....       0.294 sec  (  5.2% of XC)
    XC-Functional eval.     ....       0.404 sec  (  7.1% of XC)
    XC-Potential eval.      ....       0.116 sec  (  2.0% of XC)
Diagonalization             ....       0.160 sec  (  0.7%)
Density matrix formation    ....       0.027 sec  (  0.1%)
Population analysis         ....       0.307 sec  (  1.4%)
Initial guess               ....       0.002 sec  (  0.0%)
Orbital Transformation      ....       0.000 sec  (  0.0%)
Orbital Orthonormalization  ....       0.000 sec  (  0.0%)
DIIS solution               ....       0.864 sec  (  4.0%)
Grid generation             ....       1.587 sec  (  7.3%)

Maximum memory used throughout the entire SCF-calculation: 43.7 MB


-------------------------------------------------------------------------------
                          DFT DISPERSION CORRECTION                            
                                                                               
                              DFTD3 V3.1  Rev 1                                
                          USING Becke-Johnson damping                          
-------------------------------------------------------------------------------
The PBEh-3c composite method is recognized
Using three-body term ABC
Active option DFTDOPT                   ...         4   

molecular C6(AA) [au] = 283.097707 


            DFT-D V3
 parameters
 s6 scaling factor         :     1.0000 
 a1 scaling factor         :     0.4860 
 s8 scaling factor         :     0.0000 
 a2 scaling factor         :     4.5000 
 Damping factor alpha9(ATM):    16.0000 
 ad hoc parameters k1-k3   :    16.0000     1.3333    -4.0000 

 Edisp/kcal,au: -0.183306794665  -0.000292117940 
 E6   /kcal   :  -0.183306795 
 E8   /kcal   :  -0.000000000 
 E6(ABC)      :  -0.000000000 
 % E8         :   0.000000000 
 % E6(ABC)    :   0.000000000 

-------------------------   ----------------
Dispersion correction           -0.000292118
-------------------------   ----------------

------------------   -----------------
gCP correction             0.000773796
------------------   -----------------

-------------------------   --------------------
FINAL SINGLE POINT ENERGY      -415.989233750873
-------------------------   --------------------


                            ***************************************
                            *     ORCA property calculations      *
                            ***************************************

                                    ---------------------
                                    Active property flags
                                    ---------------------
   (+) Dipole Moment


------------------------------------------------------------------------------
                       ORCA ELECTRIC PROPERTIES CALCULATION
------------------------------------------------------------------------------

Dipole Moment Calculation                       ... on
Quadrupole Moment Calculation                   ... off
Polarizability Calculation                      ... off
GBWName                                         ... pbeh-3c.gbw
Electron density                                ... pbeh-3c.scfp
The origin for moment calculation is the CENTER OF MASS  = ( 0.000000,  0.000000  0.471298)

-------------
DIPOLE MOMENT
-------------
                                X             Y             Z
Electronic contribution:     -0.00000      -0.00000       0.81048
Nuclear contribution   :      0.00000       0.00000      -0.49141
                        -----------------------------------------
Total Dipole Moment    :     -0.00000      -0.00000       0.31907
                        -----------------------------------------
Magnitude (a.u.)       :      0.31907
Magnitude (Debye)      :      0.81102



--------------------
Rotational spectrum 
--------------------
 
Rotational constants in cm-1:     0.000000     0.652739     0.652739 
Rotational constants in MHz :     0.000000 19568.616594 19568.616594 

 Dipole components along the rotational axes: 
x,y,z [a.u.] :     0.319074    -0.000000    -0.000000 
x,y,z [Debye]:     0.811020    -0.000000    -0.000000 

 

Timings for individual modules:

Sum of individual times         ...       23.355 sec (=   0.389 min)
GTO integral calculation        ...        1.114 sec (=   0.019 min)   4.8 %
SCF iterations                  ...       22.241 sec (=   0.371 min)  95.2 %
                             ****ORCA TERMINATED NORMALLY****
TOTAL RUN TIME: 0 days 0 hours 0 minutes 26 seconds 309 msec
