
                                 *****************
                                 * O   R   C   A *
                                 *****************

                                            #,                                       
                                            ###                                      
                                            ####                                     
                                            #####                                    
                                            ######                                   
                                           ########,                                 
                                     ,,################,,,,,                         
                               ,,#################################,,                 
                          ,,##########################################,,             
                       ,#########################################, ''#####,          
                    ,#############################################,,   '####,        
                  ,##################################################,,,,####,       
                ,###########''''           ''''###############################       
              ,#####''   ,,,,##########,,,,          '''####'''          '####       
            ,##' ,,,,###########################,,,                        '##       
           ' ,,###''''                  '''############,,,                           
         ,,##''                                '''############,,,,        ,,,,,,###''
      ,#''                                            '''#######################'''  
     '                                                          ''''####''''         
             ,#######,   #######,   ,#######,      ##                                
            ,#'     '#,  ##    ##  ,#'     '#,    #''#        ######   ,####,        
            ##       ##  ##   ,#'  ##            #'  '#       #        #'  '#        
            ##       ##  #######   ##           ,######,      #####,   #    #        
            '#,     ,#'  ##    ##  '#,     ,#' ,#      #,         ##   #,  ,#        
             '#######'   ##     ##  '#######'  #'      '#     #####' # '####'        



                  #######################################################
                  #                        -***-                        #
                  #          Department of theory and spectroscopy      #
                  #    Directorship and core code : Frank Neese         #
                  #        Max Planck Institute fuer Kohlenforschung    #
                  #                Kaiser Wilhelm Platz 1               #
                  #                 D-45470 Muelheim/Ruhr               #
                  #                      Germany                        #
                  #                                                     #
                  #                  All rights reserved                #
                  #                        -***-                        #
                  #######################################################


                         Program Version 5.0.3 -  RELEASE  -


 With contributions from (in alphabetic order):
   Daniel Aravena         : Magnetic Suceptibility
   Michael Atanasov       : Ab Initio Ligand Field Theory (pilot matlab implementation)
   Alexander A. Auer      : GIAO ZORA, VPT2 properties, NMR spectrum
   Ute Becker             : Parallelization
   Giovanni Bistoni       : ED, misc. LED, open-shell LED, HFLD
   Martin Brehm           : Molecular dynamics
   Dmytro Bykov           : SCF Hessian
   Vijay G. Chilkuri      : MRCI spin determinant printing, contributions to CSF-ICE
   Dipayan Datta          : RHF DLPNO-CCSD density
   Achintya Kumar Dutta   : EOM-CC, STEOM-CC
   Dmitry Ganyushin       : Spin-Orbit,Spin-Spin,Magnetic field MRCI
   Miquel Garcia          : C-PCM and meta-GGA Hessian, CC/C-PCM, Gaussian charge scheme
   Yang Guo               : DLPNO-NEVPT2, F12-NEVPT2, CIM, IAO-localization
   Andreas Hansen         : Spin unrestricted coupled pair/coupled cluster methods
   Benjamin Helmich-Paris : MC-RPA, TRAH-SCF, COSX integrals
   Lee Huntington         : MR-EOM, pCC
   Robert Izsak           : Overlap fitted RIJCOSX, COSX-SCS-MP3, EOM
   Marcus Kettner         : VPT2
   Christian Kollmar      : KDIIS, OOCD, Brueckner-CCSD(T), CCSD density, CASPT2, CASPT2-K
   Simone Kossmann        : Meta GGA functionals, TD-DFT gradient, OOMP2, MP2 Hessian
   Martin Krupicka        : Initial AUTO-CI
   Lucas Lang             : DCDCAS
   Marvin Lechner         : AUTO-CI (C++ implementation), FIC-MRCC
   Dagmar Lenk            : GEPOL surface, SMD
   Dimitrios Liakos       : Extrapolation schemes; Compound Job, initial MDCI parallelization
   Dimitrios Manganas     : Further ROCIS development; embedding schemes
   Dimitrios Pantazis     : SARC Basis sets
   Anastasios Papadopoulos: AUTO-CI, single reference methods and gradients
   Taras Petrenko         : DFT Hessian,TD-DFT gradient, ASA, ECA, R-Raman, ABS, FL, XAS/XES, NRVS
   Peter Pinski           : DLPNO-MP2, DLPNO-MP2 Gradient
   Christoph Reimann      : Effective Core Potentials
   Marius Retegan         : Local ZFS, SOC
   Christoph Riplinger    : Optimizer, TS searches, QM/MM, DLPNO-CCSD(T), (RO)-DLPNO pert. Triples
   Tobias Risthaus        : Range-separated hybrids, TD-DFT gradient, RPA, STAB
   Michael Roemelt        : Original ROCIS implementation
   Masaaki Saitow         : Open-shell DLPNO-CCSD energy and density
   Barbara Sandhoefer     : DKH picture change effects
   Avijit Sen             : IP-ROCIS
   Kantharuban Sivalingam : CASSCF convergence, NEVPT2, FIC-MRCI
   Bernardo de Souza      : ESD, SOC TD-DFT
   Georgi Stoychev        : AutoAux, RI-MP2 NMR, DLPNO-MP2 response
   Willem Van den Heuvel  : Paramagnetic NMR
   Boris Wezisla          : Elementary symmetry handling
   Frank Wennmohs         : Technical directorship


 We gratefully acknowledge several colleagues who have allowed us to
 interface, adapt or use parts of their codes:
   Stefan Grimme, W. Hujo, H. Kruse, P. Pracht,  : VdW corrections, initial TS optimization,
                  C. Bannwarth, S. Ehlert          DFT functionals, gCP, sTDA/sTD-DF
   Ed Valeev, F. Pavosevic, A. Kumar             : LibInt (2-el integral package), F12 methods
   Garnet Chan, S. Sharma, J. Yang, R. Olivares  : DMRG
   Ulf Ekstrom                                   : XCFun DFT Library
   Mihaly Kallay                                 : mrcc  (arbitrary order and MRCC methods)
   Jiri Pittner, Ondrej Demel                    : Mk-CCSD
   Frank Weinhold                                : gennbo (NPA and NBO analysis)
   Christopher J. Cramer and Donald G. Truhlar   : smd solvation model
   Lars Goerigk                                  : TD-DFT with DH, B97 family of functionals
   V. Asgeirsson, H. Jonsson                     : NEB implementation
   FAccTs GmbH                                   : IRC, NEB, NEB-TS, DLPNO-Multilevel, CI-OPT
                                                   MM, QMMM, 2- and 3-layer-ONIOM, Crystal-QMMM,
                                                   LR-CPCM, SF, NACMEs, symmetry and pop. for TD-DFT,
                                                   nearIR, NL-DFT gradient (VV10), updates on ESD,
                                                   ML-optimized integration grids
   S Lehtola, MJT Oliveira, MAL Marques          : LibXC Library
   Liviu Ungur et al                             : ANISO software


 Your calculation uses the libint2 library for the computation of 2-el integrals
 For citations please refer to: http://libint.valeyev.net

 Your ORCA version has been built with support for libXC version: 5.1.0
 For citations please refer to: https://tddft.org/programs/libxc/

 This ORCA versions uses:
   CBLAS   interface :  Fast vector & matrix operations
   LAPACKE interface :  Fast linear algebra routines
   SCALAPACK package :  Parallel linear algebra routines
   Shared memory     :  Shared parallel matrices
   BLAS/LAPACK       :  OpenBLAS 0.3.15  USE64BITINT DYNAMIC_ARCH NO_AFFINITY Haswell SINGLE_THREADED
        Core in use  :  Haswell
   Copyright (c) 2011-2014, The OpenBLAS Project




***************************************
The coordinates will be read from file: ts3.xyz
***************************************


Your calculation utilizes the geometrical counterpoise correction gCP
Please cite in your paper:
H.Kruse, S. Grimme J.Chem.Phys., 136, (2012), 154101 
   

Your calculation utilizes the atom-pairwise dispersion correction
with the Becke-Johnson damping scheme (D3BJ)
Cite in your paper:
S.Grimme, S.Ehrlich, L.Goerigk, J Comput Chem, (2011), 32, 1456–1465 
S.Grimme, J.Antony, S.Ehrlich and H.Krieg, J.Chem.Phys., 132, (2010), 154104 
   

Your calculation employs the composite approach PBEh-3c.
Please cite in your paper:
S. Grimme, J. G. Brandenburg, C. Bannwarth, A. Hansen J.Chem.Phys., 143, (2015), 054107 
   

================================================================================

----- Orbital basis set information -----
Your calculation utilizes the basis: def2-mSVP

----- AuxJ basis set information -----
Your calculation utilizes the auxiliary basis: def2/J
   F. Weigend, Phys. Chem. Chem. Phys. 8, 1057 (2006).

================================================================================
                                        WARNINGS
                       Please study these warnings very carefully!
================================================================================


INFO   : the flag for use of the SHARK integral package has been found!

================================================================================
                                       INPUT FILE
================================================================================
NAME = pbeh-3c.inp
|  1> ! PBEh-3c def2/J TightSCF DefGrid3
|  2> 
|  3> %maxcore 60000
|  4> 
|  5> %pal
|  6> nprocs 4
|  7> end
|  8> 
|  9> *xyzfile 0 1 ts3.xyz
| 10> 
| 11>                          ****END OF INPUT****
================================================================================

                       ****************************
                       * Single Point Calculation *
                       ****************************

---------------------------------
CARTESIAN COORDINATES (ANGSTROEM)
---------------------------------
  C      1.546576    1.052525    0.339695
  C      0.344325    0.465128    1.106421
  N     -0.438201   -0.582847    0.405989
  O      1.765345    0.679537   -0.876506
  O      2.174692    1.905295    0.914130
  H      0.705679    0.064344    2.056471
  C     -1.287676    0.119226   -0.580672
  C     -1.410406    1.570700   -0.079614
  C     -0.707460    1.565442    1.282174
  H     -0.801009    0.057580   -1.554910
  H     -2.246328   -0.394660   -0.655142
  H     -0.907089    2.251661   -0.767176
  H     -2.449397    1.892603   -0.008326
  H     -0.262781    2.522072    1.550736
  H     -1.404356    1.291134    2.080847
  C      0.358843   -2.105965   -0.306701
  H     -0.603249   -2.571104   -0.516718
  H      0.782811   -2.465132    0.628466
  H     -1.045715   -0.995793    1.109685
  H      0.875664   -2.006952   -2.377148
  C      1.241128   -1.835958   -1.371065
  H      2.277352   -2.117982   -1.217797
  H      1.491251   -0.360855   -1.162840

----------------------------
CARTESIAN COORDINATES (A.U.)
----------------------------
  NO LB      ZA    FRAG     MASS         X           Y           Z
   0 C     6.0000    0    12.011    2.922605    1.988985    0.641931
   1 C     6.0000    0    12.011    0.650680    0.878965    2.090834
   2 N     7.0000    0    14.007   -0.828080   -1.101422    0.767208
   3 O     8.0000    0    15.999    3.336018    1.284140   -1.656357
   4 O     8.0000    0    15.999    4.109573    3.600487    1.727455
   5 H     1.0000    0     1.008    1.333541    0.121592    3.886167
   6 C     6.0000    0    12.011   -2.433354    0.225305   -1.097310
   7 C     6.0000    0    12.011   -2.665281    2.968192   -0.150448
   8 C     6.0000    0    12.011   -1.336905    2.958257    2.422957
   9 H     1.0000    0     1.008   -1.513688    0.108810   -2.938354
  10 H     1.0000    0     1.008   -4.244945   -0.745799   -1.238039
  11 H     1.0000    0     1.008   -1.714149    4.255023   -1.449753
  12 H     1.0000    0     1.008   -4.628689    3.576501   -0.015734
  13 H     1.0000    0     1.008   -0.496585    4.766026    2.930466
  14 H     1.0000    0     1.008   -2.653848    2.439890    3.932232
  15 C     6.0000    0    12.011    0.678114   -3.979697   -0.579581
  16 H     1.0000    0     1.008   -1.139976   -4.858683   -0.976456
  17 H     1.0000    0     1.008    1.479298   -4.658424    1.187629
  18 H     1.0000    0     1.008   -1.976115   -1.881776    2.097001
  19 H     1.0000    0     1.008    1.654766   -3.792590   -4.492158
  20 C     6.0000    0    12.011    2.345391   -3.469458   -2.590938
  21 H     1.0000    0     1.008    4.303572   -4.002405   -2.301302
  22 H     1.0000    0     1.008    2.818056   -0.681918   -2.197449

--------------------------------
INTERNAL COORDINATES (ANGSTROEM)
--------------------------------
 C      0   0   0     0.000000000000     0.00000000     0.00000000
 C      1   0   0     1.542177388715     0.00000000     0.00000000
 N      2   1   0     1.483646245389   116.45552295     0.00000000
 O      1   2   3     1.290785257013   119.37402728     4.22181122
 O      1   2   3     1.204874149556   116.03720372   179.82093549
 H      2   1   3     1.092611273928   108.31187840   123.23336919
 C      3   2   1     1.479193716716   106.41203835   282.82166972
 C      7   3   2     1.540420736911   106.02253665   338.03923138
 C      2   1   3     1.532263270120   108.58038920   246.28610680
 H      7   3   2     1.090772370237   108.22281867    98.70543334
 H      7   3   2     1.090247561993   109.07522564   215.65677116
 H      8   7   3     1.090769925677   110.27019663   113.26647699
 H      8   7   3     1.090048224006   112.05352106   232.66312577
 H      9   2   1     1.088579164369   112.26877476   317.94063805
 H      9   2   1     1.094892521813   109.91764446   198.37495267
 C      3   2   1     1.860938718466   122.21019023    53.55228540
 H     16   3   2     1.089074287091    92.58224481   170.91810397
 H     16   3   2     1.087790322938    96.19619961    58.80010696
 H      3   2   1     1.017243937467   105.97080421   167.88183126
 H     16   3   2     2.136271824418   115.90345747   265.14910379
 C     20  16   3     1.083976001003    35.83907913    91.52124447
 H     21  20  16     1.084799550623   114.34173507   141.28620169
 H      4   1   2     1.113342398280   118.07493832   327.82834581

---------------------------
INTERNAL COORDINATES (A.U.)
---------------------------
 C      0   0   0     0.000000000000     0.00000000     0.00000000
 C      1   0   0     2.914292914598     0.00000000     0.00000000
 N      2   1   0     2.803685083406   116.45552295     0.00000000
 O      1   2   3     2.439230633458   119.37402728     4.22181122
 O      1   2   3     2.276882168503   116.03720372   179.82093549
 H      2   1   3     2.064736078559   108.31187840   123.23336919
 C      3   2   1     2.795271023611   106.41203835   282.82166972
 C      7   3   2     2.910973323775   106.02253665   338.03923138
 C      2   1   3     2.895557945594   108.58038920   246.28610680
 H      7   3   2     2.061261054196   108.22281867    98.70543334
 H      7   3   2     2.060269310343   109.07522564   215.65677116
 H      8   7   3     2.061256434648   110.27019663   113.26647699
 H      8   7   3     2.059892616139   112.05352106   232.66312577
 H      9   2   1     2.057116495750   112.26877476   317.94063805
 H      9   2   1     2.069047012306   109.91764446   198.37495267
 C      3   2   1     3.516664529911   122.21019023    53.55228540
 H     16   3   2     2.058052142097    92.58224481   170.91810397
 H     16   3   2     2.055625801482    96.19619961    58.80010696
 H      3   2   1     1.922312453205   105.97080421   167.88183126
 H     16   3   2     4.036968695763   115.90345747   265.14910379
 C     20  16   3     2.048417777640    35.83907913    91.52124447
 H     21  20  16     2.049974060879   114.34173507   141.28620169
 H      4   1   2     2.103912226033   118.07493832   327.82834581

---------------------
BASIS SET INFORMATION
---------------------
There are 4 groups of distinct atoms

 Group   1 Type C   : 8s4p1d contracted to 4s2p1d pattern {5111/31/1}
 Group   2 Type N   : 8s4p1d contracted to 4s2p1d pattern {5111/31/1}
 Group   3 Type O   : 8s4p1d contracted to 4s2p1d pattern {5111/31/1}
 Group   4 Type H   : 4s contracted to 2s pattern {31}

Atom   0C    basis set group =>   1
Atom   1C    basis set group =>   1
Atom   2N    basis set group =>   2
Atom   3O    basis set group =>   3
Atom   4O    basis set group =>   3
Atom   5H    basis set group =>   4
Atom   6C    basis set group =>   1
Atom   7C    basis set group =>   1
Atom   8C    basis set group =>   1
Atom   9H    basis set group =>   4
Atom  10H    basis set group =>   4
Atom  11H    basis set group =>   4
Atom  12H    basis set group =>   4
Atom  13H    basis set group =>   4
Atom  14H    basis set group =>   4
Atom  15C    basis set group =>   1
Atom  16H    basis set group =>   4
Atom  17H    basis set group =>   4
Atom  18H    basis set group =>   4
Atom  19H    basis set group =>   4
Atom  20C    basis set group =>   1
Atom  21H    basis set group =>   4
Atom  22H    basis set group =>   4
---------------------------------
AUXILIARY/J BASIS SET INFORMATION
---------------------------------
There are 4 groups of distinct atoms

 Group   1 Type C   : 12s5p4d2f1g contracted to 6s4p3d1f1g pattern {711111/2111/211/2/1}
 Group   2 Type N   : 12s5p4d2f1g contracted to 6s4p3d1f1g pattern {711111/2111/211/2/1}
 Group   3 Type O   : 12s5p4d2f1g contracted to 6s4p3d1f1g pattern {711111/2111/211/2/1}
 Group   4 Type H   : 5s2p1d contracted to 3s1p1d pattern {311/2/1}

Atom   0C    basis set group =>   1
Atom   1C    basis set group =>   1
Atom   2N    basis set group =>   2
Atom   3O    basis set group =>   3
Atom   4O    basis set group =>   3
Atom   5H    basis set group =>   4
Atom   6C    basis set group =>   1
Atom   7C    basis set group =>   1
Atom   8C    basis set group =>   1
Atom   9H    basis set group =>   4
Atom  10H    basis set group =>   4
Atom  11H    basis set group =>   4
Atom  12H    basis set group =>   4
Atom  13H    basis set group =>   4
Atom  14H    basis set group =>   4
Atom  15C    basis set group =>   1
Atom  16H    basis set group =>   4
Atom  17H    basis set group =>   4
Atom  18H    basis set group =>   4
Atom  19H    basis set group =>   4
Atom  20C    basis set group =>   1
Atom  21H    basis set group =>   4
Atom  22H    basis set group =>   4


           ************************************************************
           *        Program running with 4 parallel MPI-processes     *
           *              working on a common directory               *
           ************************************************************
------------------------------------------------------------------------------
                           ORCA GTO INTEGRAL CALCULATION
                           -- RI-GTO INTEGRALS CHOSEN --
------------------------------------------------------------------------------
------------------------------------------------------------------------------
                   ___                                                        
                  /   \      - P O W E R E D   B Y -                         
                 /     \                                                     
                 |  |  |   _    _      __       _____    __    __             
                 |  |  |  | |  | |    /  \     |  _  \  |  |  /  |          
                  \  \/   | |  | |   /    \    | | | |  |  | /  /          
                 / \  \   | |__| |  /  /\  \   | |_| |  |  |/  /          
                |  |  |   |  __  | /  /__\  \  |    /   |      \           
                |  |  |   | |  | | |   __   |  |    \   |  |\   \          
                \     /   | |  | | |  |  |  |  | |\  \  |  | \   \       
                 \___/    |_|  |_| |__|  |__|  |_| \__\ |__|  \__/        
                                                                              
                      - O R C A' S   B I G   F R I E N D -                    
                                      &                                       
                       - I N T E G R A L  F E E D E R -                       
                                                                              
 v1 FN, 2020, v2 2021                                                         
------------------------------------------------------------------------------


Reading SHARK input file pbeh-3c.SHARKINP.tmp ... ok
----------------------
SHARK INTEGRAL PACKAGE
----------------------

Number of atoms                             ...     23
Number of basis functions                   ...    176
Number of shells                            ...     96
Maximum angular momentum                    ...      2
Integral batch strategy                     ... SHARK/LIBINT Hybrid
RI-J (if used) integral strategy            ... SPLIT-RIJ (Revised 2003 algorithm where possible)
Printlevel                                  ...      1
Contraction scheme used                     ... SEGMENTED contraction
Coulomb Range Separation                    ... NOT USED
Exchange Range Separation                   ... NOT USED
Finite Nucleus Model                        ... NOT USED
Auxiliary Coulomb fitting basis             ... AVAILABLE
   # of basis functions in Aux-J            ...    633
   # of shells in Aux-J                     ...    215
   Maximum angular momentum in Aux-J        ...      4
Auxiliary J/K fitting basis                 ... NOT available
Auxiliary Correlation fitting basis         ... NOT available
Auxiliary 'external' fitting basis          ... NOT available
Integral threshold                          ...     2.500000e-11
Primitive cut-off                           ...     2.500000e-12
Primitive pair pre-selection threshold      ...     2.500000e-12

Calculating pre-screening integrals         ... done (  0.1 sec) Dimension = 96
Organizing shell pair data                  ... done (  0.7 sec)
Shell pair information
Total number of shell pairs                 ...      4656
Shell pairs after pre-screening             ...      4211
Total number of primitive shell pairs       ...     16822
Primitive shell pairs kept                  ...     10578
          la=0 lb=0:   1882 shell pairs
          la=1 lb=0:   1266 shell pairs
          la=1 lb=1:    210 shell pairs
          la=2 lb=0:    600 shell pairs
          la=2 lb=1:    198 shell pairs
          la=2 lb=2:     55 shell pairs

Calculating one electron integrals          ... done (  0.0 sec)
Calculating RI/J V-Matrix + Cholesky decomp.... done (  0.7 sec)
Calculating Nuclear repulsion               ... done (  0.1 sec) ENN=    588.706103843920 Eh

SHARK setup successfully completed in   3.0 seconds

Maximum memory used throughout the entire GTOINT-calculation: 12.8 MB


           ************************************************************
           *        Program running with 4 parallel MPI-processes     *
           *              working on a common directory               *
           ************************************************************
-------------------------------------------------------------------------------
                                 ORCA SCF
-------------------------------------------------------------------------------

------------
SCF SETTINGS
------------
Hamiltonian:
 Density Functional     Method          .... DFT(GTOs)
 Exchange Functional    Exchange        .... PBE
   PBE kappa parameter   XKappa         ....  1.024500
   PBE mue parameter    XMuePBE         ....  0.123457
 Correlation Functional Correlation     .... PBE
   PBE beta parameter  CBetaPBE         ....  0.030000
 LDA part of GGA corr.  LDAOpt          .... PW91-LDA
 Gradients option       PostSCFGGA      .... off
 Hybrid DFT is turned on
   Fraction HF Exchange ScalHFX         ....  0.420000
   Scaling of DF-GGA-X  ScalDFX         ....  0.580000
   Scaling of DF-GGA-C  ScalDFC         ....  1.000000
   Scaling of DF-LDA-C  ScalLDAC        ....  1.000000
   Perturbative correction              ....  0.000000
   Density functional embedding theory  .... OFF
 RI-approximation to the Coulomb term is turned on
   Number of AuxJ basis functions       .... 633
   RIJ-ON(X) (HFX calculated with O(N)) .... on
   Number of AuxJ basis functions       .... 633
   RIJ-COSX (HFX calculated with COS-X)).... on


General Settings:
 Integral files         IntName         .... pbeh-3c
 Hartree-Fock type      HFTyp           .... RHF
 Total Charge           Charge          ....    0
 Multiplicity           Mult            ....    1
 Number of Electrons    NEL             ....   78
 Basis Dimension        Dim             ....  176
 Nuclear Repulsion      ENuc            ....    588.7061038439 Eh

Convergence Acceleration:
 DIIS                   CNVDIIS         .... on
   Start iteration      DIISMaxIt       ....    12
   Startup error        DIISStart       ....  0.200000
   # of expansion vecs  DIISMaxEq       ....     5
   Bias factor          DIISBfac        ....   1.050
   Max. coefficient     DIISMaxC        ....  10.000
 Trust-Rad. Augm. Hess. CNVTRAH         .... auto
   Auto Start mean grad. ratio tolernc. ....  1.125000
   Auto Start start iteration           ....    20
   Auto Start num. interpolation iter.  ....    10
   Max. Number of Micro iterations      ....    16
   Max. Number of Macro iterations      .... Maxiter - #DIIS iter
   Number of Davidson start vectors     ....     2
   Converg. threshold I  (grad. norm)   ....   1.000e-05
   Converg. threshold II (energy diff.) ....   1.000e-08
   Grad. Scal. Fac. for Micro threshold ....   0.100
   Minimum threshold for Micro iter.    ....   0.010
   NR start threshold (gradient norm)   ....   0.001
   Initial trust radius                 ....   0.400
   Minimum AH scaling param. (alpha)    ....   1.000
   Maximum AH scaling param. (alpha)    .... 1000.000
   Orbital update algorithm             .... Taylor
   White noise on init. David. guess    .... on
   Maximum white noise                  ....   0.010
   Quad. conv. algorithm                .... NR
   COSX micro iterations for RIJONX calc.... off
 SOSCF                  CNVSOSCF        .... on
   Start iteration      SOSCFMaxIt      ....   150
   Startup grad/error   SOSCFStart      ....  0.003300
 Level Shifting         CNVShift        .... on
   Level shift para.    LevelShift      ....    0.2500
   Turn off err/grad.   ShiftErr        ....    0.0010
 Zerner damping         CNVZerner       .... off
 Static damping         CNVDamp         .... on
   Fraction old density DampFac         ....    0.7000
   Max. Damping (<1)    DampMax         ....    0.9800
   Min. Damping (>=0)   DampMin         ....    0.0000
   Turn off err/grad.   DampErr         ....    0.1000
 Fernandez-Rico         CNVRico         .... off

SCF Procedure:
 Maximum # iterations   MaxIter         ....   125
 SCF integral mode      SCFMode         .... Direct
   Integral package                     .... SHARK and LIBINT hybrid scheme
 Reset frequency        DirectResetFreq ....    20
 Integral Threshold     Thresh          ....  2.500e-11 Eh
 Primitive CutOff       TCut            ....  2.500e-12 Eh

Convergence Tolerance:
 Convergence Check Mode ConvCheckMode   .... Total+1el-Energy
 Convergence forced     ConvForced      .... 0
 Energy Change          TolE            ....  1.000e-08 Eh
 1-El. energy change                    ....  1.000e-05 Eh
 Orbital Gradient       TolG            ....  1.000e-05
 Orbital Rotation angle TolX            ....  1.000e-05
 DIIS Error             TolErr          ....  5.000e-07


Diagonalization of the overlap matrix:
Smallest eigenvalue                        ... 4.266e-03
Time for diagonalization                   ...    0.023 sec
Threshold for overlap eigenvalues          ... 1.000e-08
Number of eigenvalues below threshold      ... 0
Time for construction of square roots      ...    0.604 sec
Total time needed                          ...    0.740 sec

--------------------------------
INITIAL GUESS: MINIMAL BASIS EHT
--------------------------------
The minimal basis has 63 functions
EHT matrix was diagonalized
Basis set overlap was calculated now projecting the orbitals
Using GuessMode=FMatrix for the initial guess
C*T matrix was formed
Effective Fockian was calculated
Effective Fockian was diagonalized
Initial density was built
                      ------------------
                      INITIAL GUESS DONE
                      ------------------
-------------------
DFT GRID GENERATION
-------------------

General Integration Accuracy     IntAcc      ... 4.959
Radial Grid Type                 RadialGrid  ... OptM3 with GC (2021)
Angular Grid (max. ang.)         AngularGrid ... 6 (Lebedev-590)
Angular grid pruning method      GridPruning ... 4 (adaptive)
Weight generation scheme         WeightScheme... Becke
Basis function cutoff            BFCut       ... 1.0000e-11
Integration weight cutoff        WCut        ... 1.0000e-14
Angular grids for H and He will be reduced by one unit
Partially contracted basis set               ... off
Rotationally invariant grid construction     ... off

Total number of grid points                  ...   253251
Total number of batches                      ...     3969
Average number of points per batch           ...       63
Average number of grid points per atom       ...    11011
Time for grid setup =    8.476 sec

--------------------
COSX GRID GENERATION
--------------------

GRIDX 1
-------
General Integration Accuracy     IntAcc      ... 4.020
Radial Grid Type                 RadialGrid  ... OptM3 with GC (2021)
Angular Grid (max. ang.)         AngularGrid ... 2 (Lebedev-110)
Angular grid pruning method      GridPruning ... 4 (adaptive)
Weight generation scheme         WeightScheme... Becke
Basis function cutoff            BFCut       ... 1.0000e-11
Integration weight cutoff        WCut        ... 1.0000e-14
Angular grids for H and He will be reduced by one unit
Partially contracted basis set               ... on
Rotationally invariant grid construction     ... off

Total number of grid points                  ...    27346
Total number of batches                      ...      438
Average number of points per batch           ...       62
Average number of grid points per atom       ...     1189
UseSFitting                                  ... on

GRIDX 2
-------
General Integration Accuracy     IntAcc      ... 4.338
Radial Grid Type                 RadialGrid  ... OptM3 with GC (2021)
Angular Grid (max. ang.)         AngularGrid ... 3 (Lebedev-194)
Angular grid pruning method      GridPruning ... 4 (adaptive)
Weight generation scheme         WeightScheme... Becke
Basis function cutoff            BFCut       ... 1.0000e-11
Integration weight cutoff        WCut        ... 1.0000e-14
Angular grids for H and He will be reduced by one unit
Partially contracted basis set               ... on
Rotationally invariant grid construction     ... off

Total number of grid points                  ...    59763
Total number of batches                      ...      944
Average number of points per batch           ...       63
Average number of grid points per atom       ...     2598
UseSFitting                                  ... on

GRIDX 3
-------
General Integration Accuracy     IntAcc      ... 4.871
Radial Grid Type                 RadialGrid  ... OptM3 with GC (2021)
Angular Grid (max. ang.)         AngularGrid ... 4 (Lebedev-302)
Angular grid pruning method      GridPruning ... 4 (adaptive)
Weight generation scheme         WeightScheme... Becke
Basis function cutoff            BFCut       ... 1.0000e-11
Integration weight cutoff        WCut        ... 1.0000e-14
Angular grids for H and He will be reduced by one unit
Partially contracted basis set               ... on
Rotationally invariant grid construction     ... off

Total number of grid points                  ...   115358
Total number of batches                      ...     1815
Average number of points per batch           ...       63
Average number of grid points per atom       ...     5016
UseSFitting                                  ... on

Time for X-Grid setup             =    6.614 sec

--------------
SCF ITERATIONS
--------------
ITER       Energy         Delta-E        Max-DP      RMS-DP      [F,P]     Damp
               ***  Starting incremental Fock matrix formation  ***
  0   -477.2497768936   0.000000000000 0.18578272  0.00533064  0.5390592 0.7000
  1   -477.7747990343  -0.525022140691 0.09754933  0.00310169  0.2846358 0.7000
                               ***Turning on DIIS***
  2   -478.0465322581  -0.271733223727 0.06287268  0.00178456  0.1972400 0.7000
  3   -478.2349232385  -0.188390980442 0.03828442  0.00126424  0.1388577 0.7000
  4   -478.3700541721  -0.135130933593 0.09738826  0.00308874  0.0971446 0.0000
  5   -478.6935754645  -0.323521292406 0.01135846  0.00029564  0.0107700 0.0000
  6   -478.6939602843  -0.000384819760 0.00360311  0.00010261  0.0061327 0.0000
                      *** Initiating the SOSCF procedure ***
                           *** Shutting down DIIS ***
                      *** Re-Reading the Fockian *** 
                      *** Removing any level shift *** 
ITER      Energy       Delta-E        Grad      Rot      Max-DP    RMS-DP
  7   -478.69408977  -0.0001294845  0.000763  0.000763  0.003325  0.000092
               *** Restarting incremental Fock matrix formation ***
  8   -478.69411461  -0.0000248382  0.000260  0.000617  0.001542  0.000044
  9   -478.69411165   0.0000029611  0.000504  0.000526  0.000829  0.000023
 10   -478.69411909  -0.0000074458  0.000059  0.000225  0.000276  0.000007
 11   -478.69411907   0.0000000236  0.000051  0.000071  0.000171  0.000004
 12   -478.69411924  -0.0000001689  0.000005  0.000019  0.000020  0.000001
 13   -478.69411924   0.0000000001  0.000003  0.000003  0.000011  0.000000
                  ***Gradient check signals convergence***
              ***Rediagonalizing the Fockian in SOSCF/NRSCF***

               *****************************************************
               *                     SUCCESS                       *
               *           SCF CONVERGED AFTER  14 CYCLES          *
               *****************************************************

Old exchange energy                            =    -26.863608440 Eh
New exchange energy                            =    -26.863603651 Eh
Exchange energy change after final integration =      0.000004789 Eh
Total energy after final integration           =   -478.694114444 Eh
Final COS-X integration done in                =     9.135 sec

----------------
TOTAL SCF ENERGY
----------------

Total Energy       :         -478.69411444 Eh          -13025.92908 eV

Components:
Nuclear Repulsion  :          588.70610384 Eh           16019.50750 eV
Electronic Energy  :        -1067.40021829 Eh          -29045.43658 eV
One Electron Energy:        -1818.76867760 Eh          -49491.21180 eV
Two Electron Energy:          751.36845931 Eh           20445.77522 eV
Max COSX asymmetry :            0.00000187 Eh               0.00005 eV

Virial components:
Potential Energy   :         -953.82792216 Eh          -25954.97729 eV
Kinetic Energy     :          475.13380771 Eh           12929.04821 eV
Virial Ratio       :            2.00749327


DFT components:
N(Alpha)           :       39.000011712689 electrons
N(Beta)            :       39.000011712689 electrons
N(Total)           :       78.000023425378 electrons
E(X)               :      -35.717621300632 Eh       
E(C)               :       -3.423445121060 Eh       
E(XC)              :      -39.141066421692 Eh       
DFET-embed. en.    :        0.000000000000 Eh       

---------------
SCF CONVERGENCE
---------------

  Last Energy change         ...    3.3727e-09  Tolerance :   1.0000e-08
  Last MAX-Density change    ...    1.6653e-15  Tolerance :   1.0000e-07
  Last RMS-Density change    ...    4.1289e-17  Tolerance :   5.0000e-09
  Last Orbital Gradient      ...    7.8166e-07  Tolerance :   1.0000e-05
  Last Orbital Rotation      ...    2.6372e-06  Tolerance :   1.0000e-05

             **** THE GBW FILE WAS UPDATED (pbeh-3c.gbw) ****
             **** DENSITY pbeh-3c.scfp WAS UPDATED ****
             **** ENERGY FILE WAS UPDATED (pbeh-3c.en.tmp) ****
             **** THE GBW FILE WAS UPDATED (pbeh-3c.gbw) ****
             **** DENSITY pbeh-3c.scfp WAS UPDATED ****
----------------
ORBITAL ENERGIES
----------------

  NO   OCC          E(Eh)            E(eV) 
   0   2.0000     -19.476022      -529.9695 
   1   2.0000     -19.444771      -529.1191 
   2   2.0000     -14.719119      -400.5276 
   3   2.0000     -10.551453      -287.1196 
   4   2.0000     -10.502776      -285.7951 
   5   2.0000     -10.500097      -285.7222 
   6   2.0000     -10.498083      -285.6673 
   7   2.0000     -10.461967      -284.6846 
   8   2.0000     -10.461164      -284.6627 
   9   2.0000     -10.385733      -282.6102 
  10   2.0000      -1.174073       -31.9481 
  11   2.0000      -1.090611       -29.6770 
  12   2.0000      -1.081035       -29.4165 
  13   2.0000      -0.899016       -24.4635 
  14   2.0000      -0.854796       -23.2602 
  15   2.0000      -0.841646       -22.9023 
  16   2.0000      -0.736871       -20.0513 
  17   2.0000      -0.690703       -18.7950 
  18   2.0000      -0.677871       -18.4458 
  19   2.0000      -0.628252       -17.0956 
  20   2.0000      -0.618589       -16.8327 
  21   2.0000      -0.591579       -16.0977 
  22   2.0000      -0.554676       -15.0935 
  23   2.0000      -0.540843       -14.7171 
  24   2.0000      -0.528240       -14.3741 
  25   2.0000      -0.492804       -13.4099 
  26   2.0000      -0.480514       -13.0755 
  27   2.0000      -0.475219       -12.9314 
  28   2.0000      -0.460074       -12.5192 
  29   2.0000      -0.459836       -12.5128 
  30   2.0000      -0.432899       -11.7798 
  31   2.0000      -0.425614       -11.5815 
  32   2.0000      -0.412765       -11.2319 
  33   2.0000      -0.403720       -10.9858 
  34   2.0000      -0.397284       -10.8106 
  35   2.0000      -0.379207       -10.3188 
  36   2.0000      -0.325535        -8.8583 
  37   2.0000      -0.302625        -8.2348 
  38   2.0000      -0.237212        -6.4549 
  39   0.0000       0.042062         1.1446 
  40   0.0000       0.062463         1.6997 
  41   0.0000       0.080698         2.1959 
  42   0.0000       0.134222         3.6524 
  43   0.0000       0.142615         3.8808 
  44   0.0000       0.156175         4.2497 
  45   0.0000       0.162000         4.4083 
  46   0.0000       0.167490         4.5576 
  47   0.0000       0.180199         4.9035 
  48   0.0000       0.188067         5.1176 
  49   0.0000       0.203491         5.5373 
  50   0.0000       0.209185         5.6922 
  51   0.0000       0.216723         5.8973 
  52   0.0000       0.230017         6.2591 
  53   0.0000       0.248765         6.7692 
  54   0.0000       0.271936         7.3998 
  55   0.0000       0.283494         7.7143 
  56   0.0000       0.290231         7.8976 
  57   0.0000       0.300859         8.1868 
  58   0.0000       0.311354         8.4724 
  59   0.0000       0.314779         8.5656 
  60   0.0000       0.318582         8.6691 
  61   0.0000       0.398418        10.8415 
  62   0.0000       0.451238        12.2788 
  63   0.0000       0.462674        12.5900 
  64   0.0000       0.484641        13.1878 
  65   0.0000       0.495468        13.4824 
  66   0.0000       0.503732        13.7072 
  67   0.0000       0.523956        14.2576 
  68   0.0000       0.564010        15.3475 
  69   0.0000       0.580421        15.7941 
  70   0.0000       0.586782        15.9671 
  71   0.0000       0.604070        16.4376 
  72   0.0000       0.620609        16.8876 
  73   0.0000       0.621381        16.9086 
  74   0.0000       0.637532        17.3481 
  75   0.0000       0.666684        18.1414 
  76   0.0000       0.676594        18.4110 
  77   0.0000       0.685341        18.6491 
  78   0.0000       0.709149        19.2969 
  79   0.0000       0.734807        19.9951 
  80   0.0000       0.759522        20.6677 
  81   0.0000       0.781080        21.2543 
  82   0.0000       0.801856        21.8196 
  83   0.0000       0.840484        22.8707 
  84   0.0000       0.849369        23.1125 
  85   0.0000       0.917437        24.9647 
  86   0.0000       0.925204        25.1761 
  87   0.0000       0.938740        25.5444 
  88   0.0000       0.954170        25.9643 
  89   0.0000       0.965035        26.2599 
  90   0.0000       0.972751        26.4699 
  91   0.0000       0.982414        26.7328 
  92   0.0000       0.996188        27.1076 
  93   0.0000       0.999357        27.1939 
  94   0.0000       1.037552        28.2332 
  95   0.0000       1.052117        28.6296 
  96   0.0000       1.054209        28.6865 
  97   0.0000       1.058365        28.7996 
  98   0.0000       1.082022        29.4433 
  99   0.0000       1.095998        29.8236 
 100   0.0000       1.127429        30.6789 
 101   0.0000       1.129864        30.7452 
 102   0.0000       1.161194        31.5977 
 103   0.0000       1.198770        32.6202 
 104   0.0000       1.227759        33.4090 
 105   0.0000       1.234819        33.6011 
 106   0.0000       1.249193        33.9923 
 107   0.0000       1.317898        35.8618 
 108   0.0000       1.326431        36.0940 
 109   0.0000       1.381166        37.5834 
 110   0.0000       1.400839        38.1188 
 111   0.0000       1.444964        39.3195 
 112   0.0000       1.520798        41.3830 
 113   0.0000       1.545432        42.0534 
 114   0.0000       1.558559        42.4105 
 115   0.0000       1.579588        42.9828 
 116   0.0000       1.613745        43.9122 
 117   0.0000       1.642621        44.6980 
 118   0.0000       1.712591        46.6020 
 119   0.0000       1.748446        47.5776 
 120   0.0000       1.796278        48.8792 
 121   0.0000       1.811555        49.2949 
 122   0.0000       1.831318        49.8327 
 123   0.0000       1.848701        50.3057 
 124   0.0000       1.869829        50.8806 
 125   0.0000       1.895147        51.5696 
 126   0.0000       1.911820        52.0233 
 127   0.0000       1.924072        52.3567 
 128   0.0000       1.971281        53.6413 
 129   0.0000       1.987195        54.0743 
 130   0.0000       2.013612        54.7932 
 131   0.0000       2.032520        55.3077 
 132   0.0000       2.055250        55.9262 
 133   0.0000       2.066214        56.2245 
 134   0.0000       2.090543        56.8866 
 135   0.0000       2.093845        56.9764 
 136   0.0000       2.108414        57.3729 
 137   0.0000       2.120433        57.6999 
 138   0.0000       2.130547        57.9751 
 139   0.0000       2.154366        58.6233 
 140   0.0000       2.189939        59.5913 
 141   0.0000       2.217209        60.3333 
 142   0.0000       2.234702        60.8093 
 143   0.0000       2.265646        61.6514 
 144   0.0000       2.283341        62.1329 
 145   0.0000       2.300533        62.6007 
 146   0.0000       2.331137        63.4335 
 147   0.0000       2.390030        65.0360 
 148   0.0000       2.418950        65.8230 
 149   0.0000       2.476532        67.3899 
 150   0.0000       2.526036        68.7369 
 151   0.0000       2.546470        69.2930 
 152   0.0000       2.596154        70.6449 
 153   0.0000       2.617590        71.2283 
 154   0.0000       2.654539        72.2337 
 155   0.0000       2.662787        72.4581 
 156   0.0000       2.674353        72.7729 
 157   0.0000       2.702308        73.5336 
 158   0.0000       2.744640        74.6854 
 159   0.0000       2.762820        75.1802 
 160   0.0000       2.798522        76.1517 
 161   0.0000       2.854874        77.6851 
 162   0.0000       2.919234        79.4364 
 163   0.0000       3.000006        81.6343 
 164   0.0000       3.086780        83.9956 
 165   0.0000       3.258594        88.6708 
 166   0.0000      13.537313       368.3690 
 167   0.0000      13.630743       370.9114 
 168   0.0000      13.849563       376.8658 
 169   0.0000      13.925100       378.9212 
 170   0.0000      14.067043       382.7837 
 171   0.0000      14.100420       383.6919 
 172   0.0000      14.151437       385.0802 
 173   0.0000      19.280605       524.6519 
 174   0.0000      25.668589       698.4778 
 175   0.0000      25.868941       703.9297 

                    ********************************
                    * MULLIKEN POPULATION ANALYSIS *
                    ********************************

-----------------------
MULLIKEN ATOMIC CHARGES
-----------------------
   0 C :    0.532883
   1 C :   -0.257540
   2 N :   -0.554348
   3 O :   -0.575621
   4 O :   -0.409377
   5 H :    0.274537
   6 C :   -0.292581
   7 C :   -0.485450
   8 C :   -0.440719
   9 H :    0.280658
  10 H :    0.236259
  11 H :    0.268330
  12 H :    0.242192
  13 H :    0.286354
  14 H :    0.220615
  15 C :   -0.264590
  16 H :    0.225989
  17 H :    0.233401
  18 H :    0.369572
  19 H :    0.212495
  20 C :   -0.820081
  21 H :    0.244367
  22 H :    0.472656
Sum of atomic charges:   -0.0000000

--------------------------------
MULLIKEN REDUCED ORBITAL CHARGES
--------------------------------
  0 C s       :     2.935486  s :     2.935486
      pz      :     0.772146  p :     2.383409
      px      :     0.816808
      py      :     0.794454
      dz2     :     0.041421  d :     0.148223
      dxz     :     0.033338
      dyz     :     0.034215
      dx2y2   :     0.019442
      dxy     :     0.019807
  1 C s       :     3.297633  s :     3.297633
      pz      :     1.103141  p :     2.902634
      px      :     0.932458
      py      :     0.867035
      dz2     :     0.008486  d :     0.057273
      dxz     :     0.011823
      dyz     :     0.012246
      dx2y2   :     0.008717
      dxy     :     0.016001
  2 N s       :     3.616548  s :     3.616548
      pz      :     1.257372  p :     3.892767
      px      :     1.294801
      py      :     1.340593
      dz2     :     0.005479  d :     0.045034
      dxz     :     0.013340
      dyz     :     0.010458
      dx2y2   :     0.006736
      dxy     :     0.009020
  3 O s       :     3.784699  s :     3.784699
      pz      :     1.410636  p :     4.766416
      px      :     1.775744
      py      :     1.580037
      dz2     :     0.009741  d :     0.024506
      dxz     :     0.005314
      dyz     :     0.004108
      dx2y2   :     0.002993
      dxy     :     0.002350
  4 O s       :     3.752409  s :     3.752409
      pz      :     1.661862  p :     4.626771
      px      :     1.543824
      py      :     1.421084
      dz2     :     0.004105  d :     0.030198
      dxz     :     0.005213
      dyz     :     0.005679
      dx2y2   :     0.008901
      dxy     :     0.006301
  5 H s       :     0.725463  s :     0.725463
  6 C s       :     3.284732  s :     3.284732
      pz      :     1.002777  p :     2.954823
      px      :     1.023422
      py      :     0.928624
      dz2     :     0.012087  d :     0.053027
      dxz     :     0.011035
      dyz     :     0.009628
      dx2y2   :     0.008199
      dxy     :     0.012078
  7 C s       :     3.340497  s :     3.340497
      pz      :     0.987633  p :     3.103760
      px      :     1.145000
      py      :     0.971127
      dz2     :     0.008034  d :     0.041193
      dxz     :     0.007026
      dyz     :     0.009405
      dx2y2   :     0.010032
      dxy     :     0.006697
  8 C s       :     3.337819  s :     3.337819
      pz      :     0.976225  p :     3.060432
      px      :     1.001320
      py      :     1.082887
      dz2     :     0.008642  d :     0.042469
      dxz     :     0.012325
      dyz     :     0.005563
      dx2y2   :     0.005788
      dxy     :     0.010151
  9 H s       :     0.719342  s :     0.719342
 10 H s       :     0.763741  s :     0.763741
 11 H s       :     0.731670  s :     0.731670
 12 H s       :     0.757808  s :     0.757808
 13 H s       :     0.713646  s :     0.713646
 14 H s       :     0.779385  s :     0.779385
 15 C s       :     3.331758  s :     3.331758
      pz      :     1.075641  p :     2.885394
      px      :     1.059994
      py      :     0.749760
      dz2     :     0.010670  d :     0.047438
      dxz     :     0.009059
      dyz     :     0.010419
      dx2y2   :     0.005451
      dxy     :     0.011838
 16 H s       :     0.774011  s :     0.774011
 17 H s       :     0.766599  s :     0.766599
 18 H s       :     0.630428  s :     0.630428
 19 H s       :     0.787505  s :     0.787505
 20 C s       :     3.365088  s :     3.365088
      pz      :     0.995256  p :     3.425627
      px      :     1.038079
      py      :     1.392292
      dz2     :     0.009661  d :     0.029366
      dxz     :     0.008828
      dyz     :     0.003045
      dx2y2   :     0.004886
      dxy     :     0.002946
 21 H s       :     0.755633  s :     0.755633
 22 H s       :     0.527344  s :     0.527344


                     *******************************
                     * LOEWDIN POPULATION ANALYSIS *
                     *******************************

----------------------
LOEWDIN ATOMIC CHARGES
----------------------
   0 C :    0.088635
   1 C :   -0.120756
   2 N :   -0.163981
   3 O :   -0.332802
   4 O :   -0.242144
   5 H :    0.147884
   6 C :   -0.155622
   7 C :   -0.251670
   8 C :   -0.232240
   9 H :    0.148962
  10 H :    0.128288
  11 H :    0.147500
  12 H :    0.135588
  13 H :    0.157916
  14 H :    0.122014
  15 C :   -0.102582
  16 H :    0.121972
  17 H :    0.127858
  18 H :    0.257748
  19 H :    0.126666
  20 C :   -0.575625
  21 H :    0.141380
  22 H :    0.325012

-------------------------------
LOEWDIN REDUCED ORBITAL CHARGES
-------------------------------
  0 C s       :     2.826134  s :     2.826134
      pz      :     0.942057  p :     2.747204
      px      :     0.912464
      py      :     0.892684
      dz2     :     0.095606  d :     0.338027
      dxz     :     0.073485
      dyz     :     0.081957
      dx2y2   :     0.042429
      dxy     :     0.044551
  1 C s       :     2.900262  s :     2.900262
      pz      :     1.069733  p :     3.094869
      px      :     1.051686
      py      :     0.973449
      dz2     :     0.016769  d :     0.125625
      dxz     :     0.024483
      dyz     :     0.026171
      dx2y2   :     0.019199
      dxy     :     0.039003
  2 N s       :     3.184668  s :     3.184668
      pz      :     1.262471  p :     3.886445
      px      :     1.293585
      py      :     1.330389
      dz2     :     0.012266  d :     0.092869
      dxz     :     0.024814
      dyz     :     0.022711
      dx2y2   :     0.012805
      dxy     :     0.020273
  3 O s       :     3.500590  s :     3.500590
      pz      :     1.471724  p :     4.780471
      px      :     1.754713
      py      :     1.554033
      dz2     :     0.021159  d :     0.051741
      dxz     :     0.010876
      dyz     :     0.010118
      dx2y2   :     0.006017
      dxy     :     0.003571
  4 O s       :     3.512522  s :     3.512522
      pz      :     1.652545  p :     4.672917
      px      :     1.559049
      py      :     1.461323
      dz2     :     0.007996  d :     0.056705
      dxz     :     0.009214
      dyz     :     0.012325
      dx2y2   :     0.012080
      dxy     :     0.015091
  5 H s       :     0.852116  s :     0.852116
  6 C s       :     2.913201  s :     2.913201
      pz      :     1.044393  p :     3.132997
      px      :     1.051677
      py      :     1.036927
      dz2     :     0.024712  d :     0.109424
      dxz     :     0.021747
      dyz     :     0.020826
      dx2y2   :     0.017949
      dxy     :     0.024189
  7 C s       :     2.917552  s :     2.917552
      pz      :     1.074775  p :     3.249215
      px      :     1.115129
      py      :     1.059311
      dz2     :     0.017570  d :     0.084903
      dxz     :     0.014166
      dyz     :     0.020049
      dx2y2   :     0.020590
      dxy     :     0.012528
  8 C s       :     2.919131  s :     2.919131
      pz      :     1.068948  p :     3.224475
      px      :     1.059625
      py      :     1.095902
      dz2     :     0.019335  d :     0.088634
      dxz     :     0.025516
      dyz     :     0.010798
      dx2y2   :     0.011811
      dxy     :     0.021174
  9 H s       :     0.851038  s :     0.851038
 10 H s       :     0.871712  s :     0.871712
 11 H s       :     0.852500  s :     0.852500
 12 H s       :     0.864412  s :     0.864412
 13 H s       :     0.842084  s :     0.842084
 14 H s       :     0.877986  s :     0.877986
 15 C s       :     2.969030  s :     2.969030
      pz      :     1.119556  p :     3.034435
      px      :     1.098894
      py      :     0.815985
      dz2     :     0.020638  d :     0.099117
      dxz     :     0.019224
      dyz     :     0.023137
      dx2y2   :     0.010480
      dxy     :     0.025638
 16 H s       :     0.878028  s :     0.878028
 17 H s       :     0.872142  s :     0.872142
 18 H s       :     0.742252  s :     0.742252
 19 H s       :     0.873334  s :     0.873334
 20 C s       :     2.968949  s :     2.968949
      pz      :     1.082086  p :     3.546046
      px      :     1.092694
      py      :     1.371266
      dz2     :     0.020312  d :     0.060630
      dxz     :     0.020599
      dyz     :     0.005209
      dx2y2   :     0.009343
      dxy     :     0.005167
 21 H s       :     0.858620  s :     0.858620
 22 H s       :     0.674988  s :     0.674988


                      *****************************
                      * MAYER POPULATION ANALYSIS *
                      *****************************

  NA   - Mulliken gross atomic population
  ZA   - Total nuclear charge
  QA   - Mulliken gross atomic charge
  VA   - Mayer's total valence
  BVA  - Mayer's bonded valence
  FA   - Mayer's free valence

  ATOM       NA         ZA         QA         VA         BVA        FA
  0 C      5.4671     6.0000     0.5329     4.2099     4.2099    -0.0000
  1 C      6.2575     6.0000    -0.2575     3.6126     3.6126     0.0000
  2 N      7.5543     7.0000    -0.5543     3.0913     3.0913    -0.0000
  3 O      8.5756     8.0000    -0.5756     1.9687     1.9687    -0.0000
  4 O      8.4094     8.0000    -0.4094     2.1860     2.1860     0.0000
  5 H      0.7255     1.0000     0.2745     0.8928     0.8928     0.0000
  6 C      6.2926     6.0000    -0.2926     3.6025     3.6025    -0.0000
  7 C      6.4855     6.0000    -0.4855     3.6804     3.6804     0.0000
  8 C      6.4407     6.0000    -0.4407     3.6635     3.6635     0.0000
  9 H      0.7193     1.0000     0.2807     0.8976     0.8976    -0.0000
 10 H      0.7637     1.0000     0.2363     0.9063     0.9063     0.0000
 11 H      0.7317     1.0000     0.2683     0.8946     0.8946    -0.0000
 12 H      0.7578     1.0000     0.2422     0.9072     0.9072     0.0000
 13 H      0.7136     1.0000     0.2864     0.8991     0.8991     0.0000
 14 H      0.7794     1.0000     0.2206     0.9076     0.9076    -0.0000
 15 C      6.2646     6.0000    -0.2646     3.6511     3.6511    -0.0000
 16 H      0.7740     1.0000     0.2260     0.9053     0.9053     0.0000
 17 H      0.7666     1.0000     0.2334     0.9053     0.9053     0.0000
 18 H      0.6304     1.0000     0.3696     0.8177     0.8177    -0.0000
 19 H      0.7875     1.0000     0.2125     0.9284     0.9284    -0.0000
 20 C      6.8201     6.0000    -0.8201     3.5482     3.5482    -0.0000
 21 H      0.7556     1.0000     0.2444     0.9097     0.9097    -0.0000
 22 H      0.5273     1.0000     0.4727     0.7678     0.7678    -0.0000

  Mayer bond orders larger than 0.100000
B(  0-C ,  1-C ) :   0.8922 B(  0-C ,  3-O ) :   1.3491 B(  0-C ,  4-O ) :   1.9845 
B(  1-C ,  2-N ) :   0.8722 B(  1-C ,  5-H ) :   0.8967 B(  1-C ,  8-C ) :   0.9534 
B(  2-N ,  6-C ) :   0.9192 B(  2-N , 15-C ) :   0.4469 B(  2-N , 18-H ) :   0.8202 
B(  3-O , 22-H ) :   0.4269 B(  6-C ,  7-C ) :   0.9476 B(  6-C ,  9-H ) :   0.8871 
B(  6-C , 10-H ) :   0.9202 B(  7-C ,  8-C ) :   0.9597 B(  7-C , 11-H ) :   0.9102 
B(  7-C , 12-H ) :   0.9239 B(  8-C , 13-H ) :   0.8967 B(  8-C , 14-H ) :   0.9192 
B( 15-C , 16-H ) :   0.9147 B( 15-C , 17-H ) :   0.9153 B( 15-C , 20-C ) :   1.3381 
B( 19-H , 20-C ) :   0.9326 B( 20-C , 21-H ) :   0.9103 B( 20-C , 22-H ) :   0.3057 


-------
TIMINGS
-------

Total SCF time: 0 days 0 hours 2 min 19 sec 

Total time                  ....     139.400 sec
Sum of individual times     ....     131.231 sec  ( 94.1%)

Fock matrix formation       ....     110.823 sec  ( 79.5%)
  Split-RI-J                ....       8.675 sec  (  7.8% of F)
  Chain of spheres X        ....      58.101 sec  ( 52.4% of F)
  XC integration            ....      26.549 sec  ( 24.0% of F)
    Basis function eval.    ....       5.543 sec  ( 20.9% of XC)
    Density eval.           ....       3.364 sec  ( 12.7% of XC)
    XC-Functional eval.     ....       1.835 sec  (  6.9% of XC)
    XC-Potential eval.      ....       2.021 sec  (  7.6% of XC)
Diagonalization             ....       0.934 sec  (  0.7%)
Density matrix formation    ....       0.134 sec  (  0.1%)
Population analysis         ....       0.783 sec  (  0.6%)
Initial guess               ....       0.264 sec  (  0.2%)
Orbital Transformation      ....       0.000 sec  (  0.0%)
Orbital Orthonormalization  ....       0.000 sec  (  0.0%)
DIIS solution               ....       1.614 sec  (  1.2%)
SOSCF solution              ....       1.589 sec  (  1.1%)
Grid generation             ....      15.090 sec  ( 10.8%)

Maximum memory used throughout the entire SCF-calculation: 62.7 MB


-------------------------------------------------------------------------------
                          DFT DISPERSION CORRECTION                            
                                                                               
                              DFTD3 V3.1  Rev 1                                
                          USING Becke-Johnson damping                          
-------------------------------------------------------------------------------
The PBEh-3c composite method is recognized
Using three-body term ABC
Active option DFTDOPT                   ...         4   

molecular C6(AA) [au] = 4198.530360 


            DFT-D V3
 parameters
 s6 scaling factor         :     1.0000 
 a1 scaling factor         :     0.4860 
 s8 scaling factor         :     0.0000 
 a2 scaling factor         :     4.5000 
 Damping factor alpha9(ATM):    16.0000 
 ad hoc parameters k1-k3   :    16.0000     1.3333    -4.0000 

 Edisp/kcal,au: -8.816816926340  -0.014050490630 
 E6   /kcal   :  -8.923390631 
 E8   /kcal   :  -0.000000000 
 E6(ABC)      :   0.106573705 
 % E8         :   0.000000000 
 % E6(ABC)    :  -1.208754876 

-------------------------   ----------------
Dispersion correction           -0.014050491
-------------------------   ----------------

------------------   -----------------
gCP correction             0.049174681
------------------   -----------------

-------------------------   --------------------
FINAL SINGLE POINT ENERGY      -478.658990254297
-------------------------   --------------------


                            ***************************************
                            *     ORCA property calculations      *
                            ***************************************

                                    ---------------------
                                    Active property flags
                                    ---------------------
   (+) Dipole Moment


------------------------------------------------------------------------------
                       ORCA ELECTRIC PROPERTIES CALCULATION
------------------------------------------------------------------------------

Dipole Moment Calculation                       ... on
Quadrupole Moment Calculation                   ... off
Polarizability Calculation                      ... off
GBWName                                         ... pbeh-3c.gbw
Electron density                                ... pbeh-3c.scfp
The origin for moment calculation is the CENTER OF MASS  = ( 0.716738,  0.532097  0.133762)

-------------
DIPOLE MOMENT
-------------
                                X             Y             Z
Electronic contribution:      5.31951       4.86656       2.42766
Nuclear contribution   :     -7.94867      -6.06695      -1.64529
                        -----------------------------------------
Total Dipole Moment    :     -2.62916      -1.20038       0.78237
                        -----------------------------------------
Magnitude (a.u.)       :      2.99425
Magnitude (Debye)      :      7.61078



--------------------
Rotational spectrum 
--------------------
 
Rotational constants in cm-1:     0.055519     0.044131     0.030822 
Rotational constants in MHz :  1664.429134  1323.005638   924.014872 

 Dipole components along the rotational axes: 
x,y,z [a.u.] :    -0.571091    -2.774959     0.969015 
x,y,z [Debye]:    -1.451597    -7.053384     2.463041 

 

Timings for individual modules:

Sum of individual times         ...      145.811 sec (=   2.430 min)
GTO integral calculation        ...        4.158 sec (=   0.069 min)   2.9 %
SCF iterations                  ...      141.653 sec (=   2.361 min)  97.1 %
                             ****ORCA TERMINATED NORMALLY****
TOTAL RUN TIME: 0 days 0 hours 2 minutes 31 seconds 188 msec
