
                                 *****************
                                 * O   R   C   A *
                                 *****************

                                            #,                                       
                                            ###                                      
                                            ####                                     
                                            #####                                    
                                            ######                                   
                                           ########,                                 
                                     ,,################,,,,,                         
                               ,,#################################,,                 
                          ,,##########################################,,             
                       ,#########################################, ''#####,          
                    ,#############################################,,   '####,        
                  ,##################################################,,,,####,       
                ,###########''''           ''''###############################       
              ,#####''   ,,,,##########,,,,          '''####'''          '####       
            ,##' ,,,,###########################,,,                        '##       
           ' ,,###''''                  '''############,,,                           
         ,,##''                                '''############,,,,        ,,,,,,###''
      ,#''                                            '''#######################'''  
     '                                                          ''''####''''         
             ,#######,   #######,   ,#######,      ##                                
            ,#'     '#,  ##    ##  ,#'     '#,    #''#        ######   ,####,        
            ##       ##  ##   ,#'  ##            #'  '#       #        #'  '#        
            ##       ##  #######   ##           ,######,      #####,   #    #        
            '#,     ,#'  ##    ##  '#,     ,#' ,#      #,         ##   #,  ,#        
             '#######'   ##     ##  '#######'  #'      '#     #####' # '####'        



                  #######################################################
                  #                        -***-                        #
                  #          Department of theory and spectroscopy      #
                  #    Directorship and core code : Frank Neese         #
                  #        Max Planck Institute fuer Kohlenforschung    #
                  #                Kaiser Wilhelm Platz 1               #
                  #                 D-45470 Muelheim/Ruhr               #
                  #                      Germany                        #
                  #                                                     #
                  #                  All rights reserved                #
                  #                        -***-                        #
                  #######################################################


                         Program Version 5.0.3 -  RELEASE  -


 With contributions from (in alphabetic order):
   Daniel Aravena         : Magnetic Suceptibility
   Michael Atanasov       : Ab Initio Ligand Field Theory (pilot matlab implementation)
   Alexander A. Auer      : GIAO ZORA, VPT2 properties, NMR spectrum
   Ute Becker             : Parallelization
   Giovanni Bistoni       : ED, misc. LED, open-shell LED, HFLD
   Martin Brehm           : Molecular dynamics
   Dmytro Bykov           : SCF Hessian
   Vijay G. Chilkuri      : MRCI spin determinant printing, contributions to CSF-ICE
   Dipayan Datta          : RHF DLPNO-CCSD density
   Achintya Kumar Dutta   : EOM-CC, STEOM-CC
   Dmitry Ganyushin       : Spin-Orbit,Spin-Spin,Magnetic field MRCI
   Miquel Garcia          : C-PCM and meta-GGA Hessian, CC/C-PCM, Gaussian charge scheme
   Yang Guo               : DLPNO-NEVPT2, F12-NEVPT2, CIM, IAO-localization
   Andreas Hansen         : Spin unrestricted coupled pair/coupled cluster methods
   Benjamin Helmich-Paris : MC-RPA, TRAH-SCF, COSX integrals
   Lee Huntington         : MR-EOM, pCC
   Robert Izsak           : Overlap fitted RIJCOSX, COSX-SCS-MP3, EOM
   Marcus Kettner         : VPT2
   Christian Kollmar      : KDIIS, OOCD, Brueckner-CCSD(T), CCSD density, CASPT2, CASPT2-K
   Simone Kossmann        : Meta GGA functionals, TD-DFT gradient, OOMP2, MP2 Hessian
   Martin Krupicka        : Initial AUTO-CI
   Lucas Lang             : DCDCAS
   Marvin Lechner         : AUTO-CI (C++ implementation), FIC-MRCC
   Dagmar Lenk            : GEPOL surface, SMD
   Dimitrios Liakos       : Extrapolation schemes; Compound Job, initial MDCI parallelization
   Dimitrios Manganas     : Further ROCIS development; embedding schemes
   Dimitrios Pantazis     : SARC Basis sets
   Anastasios Papadopoulos: AUTO-CI, single reference methods and gradients
   Taras Petrenko         : DFT Hessian,TD-DFT gradient, ASA, ECA, R-Raman, ABS, FL, XAS/XES, NRVS
   Peter Pinski           : DLPNO-MP2, DLPNO-MP2 Gradient
   Christoph Reimann      : Effective Core Potentials
   Marius Retegan         : Local ZFS, SOC
   Christoph Riplinger    : Optimizer, TS searches, QM/MM, DLPNO-CCSD(T), (RO)-DLPNO pert. Triples
   Tobias Risthaus        : Range-separated hybrids, TD-DFT gradient, RPA, STAB
   Michael Roemelt        : Original ROCIS implementation
   Masaaki Saitow         : Open-shell DLPNO-CCSD energy and density
   Barbara Sandhoefer     : DKH picture change effects
   Avijit Sen             : IP-ROCIS
   Kantharuban Sivalingam : CASSCF convergence, NEVPT2, FIC-MRCI
   Bernardo de Souza      : ESD, SOC TD-DFT
   Georgi Stoychev        : AutoAux, RI-MP2 NMR, DLPNO-MP2 response
   Willem Van den Heuvel  : Paramagnetic NMR
   Boris Wezisla          : Elementary symmetry handling
   Frank Wennmohs         : Technical directorship


 We gratefully acknowledge several colleagues who have allowed us to
 interface, adapt or use parts of their codes:
   Stefan Grimme, W. Hujo, H. Kruse, P. Pracht,  : VdW corrections, initial TS optimization,
                  C. Bannwarth, S. Ehlert          DFT functionals, gCP, sTDA/sTD-DF
   Ed Valeev, F. Pavosevic, A. Kumar             : LibInt (2-el integral package), F12 methods
   Garnet Chan, S. Sharma, J. Yang, R. Olivares  : DMRG
   Ulf Ekstrom                                   : XCFun DFT Library
   Mihaly Kallay                                 : mrcc  (arbitrary order and MRCC methods)
   Jiri Pittner, Ondrej Demel                    : Mk-CCSD
   Frank Weinhold                                : gennbo (NPA and NBO analysis)
   Christopher J. Cramer and Donald G. Truhlar   : smd solvation model
   Lars Goerigk                                  : TD-DFT with DH, B97 family of functionals
   V. Asgeirsson, H. Jonsson                     : NEB implementation
   FAccTs GmbH                                   : IRC, NEB, NEB-TS, DLPNO-Multilevel, CI-OPT
                                                   MM, QMMM, 2- and 3-layer-ONIOM, Crystal-QMMM,
                                                   LR-CPCM, SF, NACMEs, symmetry and pop. for TD-DFT,
                                                   nearIR, NL-DFT gradient (VV10), updates on ESD,
                                                   ML-optimized integration grids
   S Lehtola, MJT Oliveira, MAL Marques          : LibXC Library
   Liviu Ungur et al                             : ANISO software


 Your calculation uses the libint2 library for the computation of 2-el integrals
 For citations please refer to: http://libint.valeyev.net

 Your ORCA version has been built with support for libXC version: 5.1.0
 For citations please refer to: https://tddft.org/programs/libxc/

 This ORCA versions uses:
   CBLAS   interface :  Fast vector & matrix operations
   LAPACKE interface :  Fast linear algebra routines
   SCALAPACK package :  Parallel linear algebra routines
   Shared memory     :  Shared parallel matrices
   BLAS/LAPACK       :  OpenBLAS 0.3.15  USE64BITINT DYNAMIC_ARCH NO_AFFINITY Haswell SINGLE_THREADED
        Core in use  :  Haswell
   Copyright (c) 2011-2014, The OpenBLAS Project




***************************************
The coordinates will be read from file: MeI_pyr.xyz
***************************************


Your calculation utilizes the geometrical counterpoise correction gCP
Please cite in your paper:
H.Kruse, S. Grimme J.Chem.Phys., 136, (2012), 154101 
   

Your calculation utilizes the atom-pairwise dispersion correction
with the Becke-Johnson damping scheme (D3BJ)
Cite in your paper:
S.Grimme, S.Ehrlich, L.Goerigk, J Comput Chem, (2011), 32, 1456–1465 
S.Grimme, J.Antony, S.Ehrlich and H.Krieg, J.Chem.Phys., 132, (2010), 154104 
   

Your calculation employs the composite approach PBEh-3c.
Please cite in your paper:
S. Grimme, J. G. Brandenburg, C. Bannwarth, A. Hansen J.Chem.Phys., 143, (2015), 054107 
   

================================================================================

cite the ECPs for I  [Def2-ECP] as follows:
Ce-Yb(ecp-28): M. Dolg, H. Stoll, H.Preuss, J. Chem. Phys., 1989, 90, 1730-1734.
Y-Cd(ecp-28), Hf-Hg(ecp-46): D. Andrae,U. Haeussermann, M. Dolg, H. Stoll, H. Preuss, Theor. Chim. Acta, 1990, 77, 123-141.
In-Sb(ecp-28), Tl-Bi(ecp-46): B. Metz, H. Stoll, M. Dolg, J. Chem. Phys., 2000, 113, 2563-2569.
Te-Xe(ecp-28), Po-Rn(ecp-46): K. A. Peterson, D. Figgen, E. Goll, H. Stoll, M. Dolg, J. Chem. Phys., 2003, 119, 11113-11123.
Rb(ecp-28), Cs(ecp-46): T. Leininger, A. Nicklass, W. Kuechle, H. Stoll, M. Dolg, A. Bergner, Chem. Phys. Lett., 1996, 255, 274-280.
Sr(ecp-28), Ba(ecp-46): M. Kaupp, P. V. Schleyer, H. Stoll and H. Preuss, J. Chem. Phys., 1991, 94, 1360-1366.
La(ecp-46): M. Dolg, H. Stoll, A. Savin, H. Preuss, Theor. Chim. Acta, 1989, 75, 173-194.
Lu(ecp-28): X. Cao, M. Dolg, J. Chem. Phys., 2001, 115, 7348-7355.

ECP parameters for I  [Def2-ECP] have been obtained from:
TURBOMOLE (7.0.2)

----- Orbital basis set information -----
Your calculation utilizes the basis: def2-mSVP

----- AuxJ basis set information -----
Your calculation utilizes the auxiliary basis: def2/J
   F. Weigend, Phys. Chem. Chem. Phys. 8, 1057 (2006).

================================================================================
                                        WARNINGS
                       Please study these warnings very carefully!
================================================================================


INFO   : the flag for use of the SHARK integral package has been found!

================================================================================
                                       INPUT FILE
================================================================================
NAME = pbeh-3c.inp
|  1> ! PBEh-3c def2/J TightSCF DefGrid3
|  2> 
|  3> %maxcore 60000
|  4> 
|  5> %pal
|  6> nprocs 4
|  7> end
|  8> 
|  9> *xyzfile 0 1 MeI_pyr.xyz
| 10> 
| 11>                          ****END OF INPUT****
================================================================================

                       ****************************
                       * Single Point Calculation *
                       ****************************

---------------------------------
CARTESIAN COORDINATES (ANGSTROEM)
---------------------------------
  C     -0.000354   -3.763893    0.000000
  I      0.000190   -1.630948    0.000000
  H      1.027767   -4.109230    0.000000
  H     -0.513816   -4.109580    0.890515
  H     -0.513816   -4.109580   -0.890515
  C     -1.191759    3.556532    0.000000
  C     -1.138322    2.171519    0.000000
  N      0.000000    1.485156    0.000000
  H      2.049750    1.583343    0.000000
  H      2.146103    4.064702    0.000000
  H     -0.000527    5.345268    0.000000
  H     -2.146802    4.064117    0.000000
  H     -2.049772    1.582757    0.000000
  C      1.138128    2.171836    0.000000
  C     -0.000379    4.262535    0.000000
  C      1.191196    3.556862    0.000000

----------------------------
CARTESIAN COORDINATES (A.U.)
----------------------------
  NO LB      ZA    FRAG     MASS         X           Y           Z
   0 C     6.0000    0    12.011   -0.000669   -7.112726    0.000000
   1 I    25.0000*   0   126.900    0.000359   -3.082045    0.000000
   2 H     1.0000    0     1.008    1.942198   -7.765319    0.000000
   3 H     1.0000    0     1.008   -0.970972   -7.765980    1.682829
   4 H     1.0000    0     1.008   -0.970972   -7.765980   -1.682829
   5 C     6.0000    0    12.011   -2.252098    6.720871    0.000000
   6 C     6.0000    0    12.011   -2.151117    4.103576    0.000000
   7 N     7.0000    0    14.007    0.000000    2.806538    0.000000
   8 H     1.0000    0     1.008    3.873466    2.992084    0.000000
   9 H     1.0000    0     1.008    4.055547    7.681173    0.000000
  10 H     1.0000    0     1.008   -0.000996   10.101092    0.000000
  11 H     1.0000    0     1.008   -4.056867    7.680068    0.000000
  12 H     1.0000    0     1.008   -3.873508    2.990977    0.000000
  13 C     6.0000    0    12.011    2.150750    4.104175    0.000000
  14 C     6.0000    0    12.011   -0.000716    8.055023    0.000000
  15 C     6.0000    0    12.011    2.251034    6.721495    0.000000
* core charge reduced due to ECP

--------------------------------
INTERNAL COORDINATES (ANGSTROEM)
--------------------------------
 C      0   0   0     0.000000000000     0.00000000     0.00000000
 I      1   0   0     2.132944869373     0.00000000     0.00000000
 H      1   2   0     1.084569144216   108.55214571     0.00000000
 H      1   2   3     1.084508881723   108.59463439   119.96306149
 H      1   2   3     1.084508881723   108.59463439   240.03693851
 C      2   1   3     5.322657868079   167.04491118   180.00000000
 C      6   2   1     1.386043378158    10.73096801     0.00000000
 N      7   6   2     1.329236915872   123.29781609     0.00000000
 H      8   7   6     2.052100226480   146.16920891     0.00000000
 H      9   8   7     2.483228820644    94.96620077     0.00000000
 H      6   2   1     2.149095055954   133.39737824   180.00000000
 H      6   2   1     1.081549570323   130.93017044     0.00000000
 H      7   6  12     1.085072199161   120.65140881     0.00000000
 C      9   8   7     1.085070764621    35.58653985     0.00000000
 C     11   6   2     1.082732910115    33.66997785     0.00000000
 C     10   9   8     1.081549191330    59.77127731     0.00000000

---------------------------
INTERNAL COORDINATES (A.U.)
---------------------------
 C      0   0   0     0.000000000000     0.00000000     0.00000000
 I      1   0   0     4.030681661867     0.00000000     0.00000000
 H      1   2   0     2.049538655870   108.55214571     0.00000000
 H      1   2   3     2.049424776261   108.59463439   119.96306149
 H      1   2   3     2.049424776261   108.59463439   240.03693851
 C      2   1   3    10.058365675231   167.04491118   180.00000000
 C      6   2   1     2.619242394454    10.73096801     0.00000000
 N      7   6   2     2.511893738096   123.29781609     0.00000000
 H      8   7   6     3.877907427405   146.16920891     0.00000000
 H      9   8   7     4.692622398877    94.96620077     0.00000000
 H      6   2   1     4.061201091517   133.39737824   180.00000000
 H      6   2   1     2.043832488170   130.93017044     0.00000000
 H      7   6  12     2.050489291946   120.65140881     0.00000000
 C      9   8   7     2.050486581058    35.58653985     0.00000000
 C     11   6   2     2.046068676301    33.66997785     0.00000000
 C     10   9   8     2.043831771979    59.77127731     0.00000000

---------------------
BASIS SET INFORMATION
---------------------
There are 4 groups of distinct atoms

 Group   1 Type C   : 8s4p1d contracted to 4s2p1d pattern {5111/31/1}
 Group   2 Type I   : 10s7p6d contracted to 4s4p2d pattern {6211/4111/51}
 Group   3 Type H   : 4s contracted to 2s pattern {31}
 Group   4 Type N   : 8s4p1d contracted to 4s2p1d pattern {5111/31/1}

Atom   0C    basis set group =>   1
Atom   1I    basis set group =>   2
Atom   2H    basis set group =>   3
Atom   3H    basis set group =>   3
Atom   4H    basis set group =>   3
Atom   5C    basis set group =>   1
Atom   6C    basis set group =>   1
Atom   7N    basis set group =>   4
Atom   8H    basis set group =>   3
Atom   9H    basis set group =>   3
Atom  10H    basis set group =>   3
Atom  11H    basis set group =>   3
Atom  12H    basis set group =>   3
Atom  13C    basis set group =>   1
Atom  14C    basis set group =>   1
Atom  15C    basis set group =>   1
---------------------------------
AUXILIARY/J BASIS SET INFORMATION
---------------------------------
There are 4 groups of distinct atoms

 Group   1 Type C   : 12s5p4d2f1g contracted to 6s4p3d1f1g pattern {711111/2111/211/2/1}
 Group   2 Type I   : 11s5p5d3f1g contracted to 8s4p3d2f1g pattern {41111111/2111/311/21/1}
 Group   3 Type H   : 5s2p1d contracted to 3s1p1d pattern {311/2/1}
 Group   4 Type N   : 12s5p4d2f1g contracted to 6s4p3d1f1g pattern {711111/2111/211/2/1}

Atom   0C    basis set group =>   1
Atom   1I    basis set group =>   2
Atom   2H    basis set group =>   3
Atom   3H    basis set group =>   3
Atom   4H    basis set group =>   3
Atom   5C    basis set group =>   1
Atom   6C    basis set group =>   1
Atom   7N    basis set group =>   4
Atom   8H    basis set group =>   3
Atom   9H    basis set group =>   3
Atom  10H    basis set group =>   3
Atom  11H    basis set group =>   3
Atom  12H    basis set group =>   3
Atom  13C    basis set group =>   1
Atom  14C    basis set group =>   1
Atom  15C    basis set group =>   1
-------------------------
ECP PARAMETER INFORMATION
-------------------------

 Group 1, Type I  ECP Def2-ECP (replacing 28 core electrons, lmax=3)

Atom   1I    ECP group =>   1



           ************************************************************
           *        Program running with 4 parallel MPI-processes     *
           *              working on a common directory               *
           ************************************************************
------------------------------------------------------------------------------
                           ORCA GTO INTEGRAL CALCULATION
                           -- RI-GTO INTEGRALS CHOSEN --
------------------------------------------------------------------------------
------------------------------------------------------------------------------
                   ___                                                        
                  /   \      - P O W E R E D   B Y -                         
                 /     \                                                     
                 |  |  |   _    _      __       _____    __    __             
                 |  |  |  | |  | |    /  \     |  _  \  |  |  /  |          
                  \  \/   | |  | |   /    \    | | | |  |  | /  /          
                 / \  \   | |__| |  /  /\  \   | |_| |  |  |/  /          
                |  |  |   |  __  | /  /__\  \  |    /   |      \           
                |  |  |   | |  | | |   __   |  |    \   |  |\   \          
                \     /   | |  | | |  |  |  |  | |\  \  |  | \   \       
                 \___/    |_|  |_| |__|  |__|  |_| \__\ |__|  \__/        
                                                                              
                      - O R C A' S   B I G   F R I E N D -                    
                                      &                                       
                       - I N T E G R A L  F E E D E R -                       
                                                                              
 v1 FN, 2020, v2 2021                                                         
------------------------------------------------------------------------------


Reading SHARK input file pbeh-3c.SHARKINP.tmp ... ok
----------------------
SHARK INTEGRAL PACKAGE
----------------------

Number of atoms                             ...     16
Number of basis functions                   ...    147
Number of shells                            ...     75
Maximum angular momentum                    ...      2
Integral batch strategy                     ... SHARK/LIBINT Hybrid
RI-J (if used) integral strategy            ... SPLIT-RIJ (Revised 2003 algorithm where possible)
Printlevel                                  ...      1
Contraction scheme used                     ... SEGMENTED contraction
Coulomb Range Separation                    ... NOT USED
Exchange Range Separation                   ... NOT USED
Finite Nucleus Model                        ... NOT USED
Auxiliary Coulomb fitting basis             ... AVAILABLE
   # of basis functions in Aux-J            ...    489
   # of shells in Aux-J                     ...    163
   Maximum angular momentum in Aux-J        ...      4
Auxiliary J/K fitting basis                 ... NOT available
Auxiliary Correlation fitting basis         ... NOT available
Auxiliary 'external' fitting basis          ... NOT available
Integral threshold                          ...     2.500000e-11
Primitive cut-off                           ...     2.500000e-12
Primitive pair pre-selection threshold      ...     2.500000e-12

Calculating pre-screening integrals         ... done (  0.1 sec) Dimension = 75
Organizing shell pair data                  ... done (  0.7 sec)
Shell pair information
Total number of shell pairs                 ...      2850
Shell pairs after pre-screening             ...      2233
Total number of primitive shell pairs       ...     10878
Primitive shell pairs kept                  ...      5915
          la=0 lb=0:    848 shell pairs
          la=1 lb=0:    722 shell pairs
          la=1 lb=1:    159 shell pairs
          la=2 lb=0:    329 shell pairs
          la=2 lb=1:    139 shell pairs
          la=2 lb=2:     36 shell pairs

Calculating one electron integrals          ... done (  0.0 sec)
Calculating ECP integrals                   ... done (  0.1 sec)
Calculating RI/J V-Matrix + Cholesky decomp.... done (  0.6 sec)
Calculating Nuclear repulsion               ... done (  0.1 sec) ENN=    424.921967695801 Eh

SHARK setup successfully completed in   3.3 seconds

Maximum memory used throughout the entire GTOINT-calculation: 11.8 MB


           ************************************************************
           *        Program running with 4 parallel MPI-processes     *
           *              working on a common directory               *
           ************************************************************
-------------------------------------------------------------------------------
                                 ORCA SCF
-------------------------------------------------------------------------------

------------
SCF SETTINGS
------------
Hamiltonian:
 Density Functional     Method          .... DFT(GTOs)
 Exchange Functional    Exchange        .... PBE
   PBE kappa parameter   XKappa         ....  1.024500
   PBE mue parameter    XMuePBE         ....  0.123457
 Correlation Functional Correlation     .... PBE
   PBE beta parameter  CBetaPBE         ....  0.030000
 LDA part of GGA corr.  LDAOpt          .... PW91-LDA
 Gradients option       PostSCFGGA      .... off
 Hybrid DFT is turned on
   Fraction HF Exchange ScalHFX         ....  0.420000
   Scaling of DF-GGA-X  ScalDFX         ....  0.580000
   Scaling of DF-GGA-C  ScalDFC         ....  1.000000
   Scaling of DF-LDA-C  ScalLDAC        ....  1.000000
   Perturbative correction              ....  0.000000
   Density functional embedding theory  .... OFF
 RI-approximation to the Coulomb term is turned on
   Number of AuxJ basis functions       .... 489
   RIJ-ON(X) (HFX calculated with O(N)) .... on
   Number of AuxJ basis functions       .... 489
   RIJ-COSX (HFX calculated with COS-X)).... on


General Settings:
 Integral files         IntName         .... pbeh-3c
 Hartree-Fock type      HFTyp           .... RHF
 Total Charge           Charge          ....    0
 Multiplicity           Mult            ....    1
 Number of Electrons    NEL             ....   76
 Basis Dimension        Dim             ....  147
 Nuclear Repulsion      ENuc            ....    424.9219676958 Eh

Convergence Acceleration:
 DIIS                   CNVDIIS         .... on
   Start iteration      DIISMaxIt       ....    12
   Startup error        DIISStart       ....  0.200000
   # of expansion vecs  DIISMaxEq       ....     5
   Bias factor          DIISBfac        ....   1.050
   Max. coefficient     DIISMaxC        ....  10.000
 Trust-Rad. Augm. Hess. CNVTRAH         .... auto
   Auto Start mean grad. ratio tolernc. ....  1.125000
   Auto Start start iteration           ....    20
   Auto Start num. interpolation iter.  ....    10
   Max. Number of Micro iterations      ....    16
   Max. Number of Macro iterations      .... Maxiter - #DIIS iter
   Number of Davidson start vectors     ....     2
   Converg. threshold I  (grad. norm)   ....   1.000e-05
   Converg. threshold II (energy diff.) ....   1.000e-08
   Grad. Scal. Fac. for Micro threshold ....   0.100
   Minimum threshold for Micro iter.    ....   0.010
   NR start threshold (gradient norm)   ....   0.001
   Initial trust radius                 ....   0.400
   Minimum AH scaling param. (alpha)    ....   1.000
   Maximum AH scaling param. (alpha)    .... 1000.000
   Orbital update algorithm             .... Taylor
   White noise on init. David. guess    .... on
   Maximum white noise                  ....   0.010
   Quad. conv. algorithm                .... NR
   COSX micro iterations for RIJONX calc.... off
 SOSCF                  CNVSOSCF        .... on
   Start iteration      SOSCFMaxIt      ....   150
   Startup grad/error   SOSCFStart      ....  0.003300
 Level Shifting         CNVShift        .... on
   Level shift para.    LevelShift      ....    0.2500
   Turn off err/grad.   ShiftErr        ....    0.0010
 Zerner damping         CNVZerner       .... off
 Static damping         CNVDamp         .... on
   Fraction old density DampFac         ....    0.7000
   Max. Damping (<1)    DampMax         ....    0.9800
   Min. Damping (>=0)   DampMin         ....    0.0000
   Turn off err/grad.   DampErr         ....    0.1000
 Fernandez-Rico         CNVRico         .... off

SCF Procedure:
 Maximum # iterations   MaxIter         ....   125
 SCF integral mode      SCFMode         .... Direct
   Integral package                     .... SHARK and LIBINT hybrid scheme
 Reset frequency        DirectResetFreq ....    20
 Integral Threshold     Thresh          ....  2.500e-11 Eh
 Primitive CutOff       TCut            ....  2.500e-12 Eh

Convergence Tolerance:
 Convergence Check Mode ConvCheckMode   .... Total+1el-Energy
 Convergence forced     ConvForced      .... 0
 Energy Change          TolE            ....  1.000e-08 Eh
 1-El. energy change                    ....  1.000e-05 Eh
 Orbital Gradient       TolG            ....  1.000e-05
 Orbital Rotation angle TolX            ....  1.000e-05
 DIIS Error             TolErr          ....  5.000e-07


Diagonalization of the overlap matrix:
Smallest eigenvalue                        ... 1.022e-03
Time for diagonalization                   ...    0.003 sec
Threshold for overlap eigenvalues          ... 1.000e-08
Number of eigenvalues below threshold      ... 0
Time for construction of square roots      ...    0.292 sec
Total time needed                          ...    0.410 sec

--------------------------------
INITIAL GUESS: MINIMAL BASIS EHT
--------------------------------
The minimal basis has 56 functions
EHT matrix was diagonalized
Basis set overlap was calculated now projecting the orbitals
Using GuessMode=FMatrix for the initial guess
C*T matrix was formed
Effective Fockian was calculated
Effective Fockian was diagonalized
Initial density was built
                      ------------------
                      INITIAL GUESS DONE
                      ------------------
-------------------
DFT GRID GENERATION
-------------------

General Integration Accuracy     IntAcc      ... 4.959
Radial Grid Type                 RadialGrid  ... OptM3 with GC (2021)
Angular Grid (max. ang.)         AngularGrid ... 6 (Lebedev-590)
Angular grid pruning method      GridPruning ... 4 (adaptive)
Weight generation scheme         WeightScheme... Becke
Basis function cutoff            BFCut       ... 1.0000e-11
Integration weight cutoff        WCut        ... 1.0000e-14
Angular grids for H and He will be reduced by one unit
Partially contracted basis set               ... off
Rotationally invariant grid construction     ... off

Total number of grid points                  ...   194950
Total number of batches                      ...     3056
Average number of points per batch           ...       63
Average number of grid points per atom       ...    12184
Time for grid setup =    4.212 sec

--------------------
COSX GRID GENERATION
--------------------

GRIDX 1
-------
General Integration Accuracy     IntAcc      ... 4.020
Radial Grid Type                 RadialGrid  ... OptM3 with GC (2021)
Angular Grid (max. ang.)         AngularGrid ... 2 (Lebedev-110)
Angular grid pruning method      GridPruning ... 4 (adaptive)
Weight generation scheme         WeightScheme... Becke
Basis function cutoff            BFCut       ... 1.0000e-11
Integration weight cutoff        WCut        ... 1.0000e-14
Angular grids for H and He will be reduced by one unit
Partially contracted basis set               ... on
Rotationally invariant grid construction     ... off

Total number of grid points                  ...    21796
Total number of batches                      ...      348
Average number of points per batch           ...       62
Average number of grid points per atom       ...     1362
UseSFitting                                  ... on

GRIDX 2
-------
General Integration Accuracy     IntAcc      ... 4.338
Radial Grid Type                 RadialGrid  ... OptM3 with GC (2021)
Angular Grid (max. ang.)         AngularGrid ... 3 (Lebedev-194)
Angular grid pruning method      GridPruning ... 4 (adaptive)
Weight generation scheme         WeightScheme... Becke
Basis function cutoff            BFCut       ... 1.0000e-11
Integration weight cutoff        WCut        ... 1.0000e-14
Angular grids for H and He will be reduced by one unit
Partially contracted basis set               ... on
Rotationally invariant grid construction     ... off

Total number of grid points                  ...    47268
Total number of batches                      ...      748
Average number of points per batch           ...       63
Average number of grid points per atom       ...     2954
UseSFitting                                  ... on

GRIDX 3
-------
General Integration Accuracy     IntAcc      ... 4.871
Radial Grid Type                 RadialGrid  ... OptM3 with GC (2021)
Angular Grid (max. ang.)         AngularGrid ... 4 (Lebedev-302)
Angular grid pruning method      GridPruning ... 4 (adaptive)
Weight generation scheme         WeightScheme... Becke
Basis function cutoff            BFCut       ... 1.0000e-11
Integration weight cutoff        WCut        ... 1.0000e-14
Angular grids for H and He will be reduced by one unit
Partially contracted basis set               ... on
Rotationally invariant grid construction     ... off

Total number of grid points                  ...    90203
Total number of batches                      ...     1419
Average number of points per batch           ...       63
Average number of grid points per atom       ...     5638
UseSFitting                                  ... on

Time for X-Grid setup             =    6.168 sec

--------------
SCF ITERATIONS
--------------
ITER       Energy         Delta-E        Max-DP      RMS-DP      [F,P]     Damp
               ***  Starting incremental Fock matrix formation  ***
  0   -582.7812916161   0.000000000000 0.30379076  0.00703805  1.4572163 0.7000
  1   -583.5599923066  -0.778700690497 0.23499619  0.00491265  1.0094355 0.7000
  2   -584.0793277031  -0.519335396448 0.18129296  0.00346756  0.7001357 0.7000
  3   -584.4434614196  -0.364133716485 0.13878332  0.00252508  0.4860689 0.7000
  4   -584.7015595800  -0.258098160458 0.10585812  0.00185644  0.3376794 0.7000
  5   -584.8837342582  -0.182174678120 0.08064583  0.00136528  0.2391160 0.7000
                               ***Turning on DIIS***
  6   -585.0120409555  -0.128306697304 0.06139899  0.00100536  0.1694739 0.7000
  7   -585.1023232798  -0.090282324332 0.05087568  0.00078336  0.1201317 0.7000
  8   -585.1658072742  -0.063483994386 0.13144889  0.00196871  0.0844949 0.0000
                      *** Initiating the SOSCF procedure ***
                           *** Shutting down DIIS ***
                      *** Re-Reading the Fockian *** 
                      *** Removing any level shift *** 
ITER      Energy       Delta-E        Grad      Rot      Max-DP    RMS-DP
  9   -585.31506388  -0.1492566094  0.001658  0.001658  0.006798  0.000098
               *** Restarting incremental Fock matrix formation ***
 10   -585.31510083  -0.0000369431  0.000939  0.003487  0.002283  0.000064
 11   -585.31511216  -0.0000113334  0.000188  0.001318  0.000806  0.000032
 12   -585.31511172   0.0000004441  0.000314  0.000481  0.000375  0.000015
 13   -585.31511297  -0.0000012587  0.000009  0.000025  0.000045  0.000001
 14   -585.31511297   0.0000000010  0.000006  0.000008  0.000009  0.000000
                  ***Gradient check signals convergence***
              ***Rediagonalizing the Fockian in SOSCF/NRSCF***

               *****************************************************
               *                     SUCCESS                       *
               *           SCF CONVERGED AFTER  15 CYCLES          *
               *****************************************************

Old exchange energy                            =    -25.910268500 Eh
New exchange energy                            =    -25.910262388 Eh
Exchange energy change after final integration =      0.000006111 Eh
Total energy after final integration           =   -585.315106862 Eh
Final COS-X integration done in                =     5.721 sec

----------------
TOTAL SCF ENERGY
----------------

Total Energy       :         -585.31510686 Eh          -15927.23378 eV

Components:
Nuclear Repulsion  :          424.92196770 Eh           11562.71458 eV
Electronic Energy  :        -1010.23707456 Eh          -27489.94836 eV
One Electron Energy:        -1749.92301266 Eh          -47617.82602 eV
Two Electron Energy:          739.68593810 Eh           20127.87766 eV
Max COSX asymmetry :            0.00000078 Eh               0.00002 eV

Virial components:
Potential Energy   :         -984.24197550 Eh          -26782.58575 eV
Kinetic Energy     :          398.92686864 Eh           10855.35197 eV
Virial Ratio       :            2.46722408


DFT components:
N(Alpha)           :       38.000000290878 electrons
N(Beta)            :       38.000000290878 electrons
N(Total)           :       76.000000581755 electrons
E(X)               :      -34.593449909790 Eh       
E(C)               :       -3.575893579570 Eh       
E(XC)              :      -38.169343489361 Eh       
DFET-embed. en.    :        0.000000000000 Eh       

---------------
SCF CONVERGENCE
---------------

  Last Energy change         ...   -2.0009e-11  Tolerance :   1.0000e-08
  Last MAX-Density change    ...    2.4425e-15  Tolerance :   1.0000e-07
  Last RMS-Density change    ...    5.4161e-17  Tolerance :   5.0000e-09
  Last Orbital Gradient      ...    6.3903e-07  Tolerance :   1.0000e-05
  Last Orbital Rotation      ...    2.7276e-06  Tolerance :   1.0000e-05

             **** THE GBW FILE WAS UPDATED (pbeh-3c.gbw) ****
             **** DENSITY pbeh-3c.scfp WAS UPDATED ****
             **** ENERGY FILE WAS UPDATED (pbeh-3c.en.tmp) ****
             **** THE GBW FILE WAS UPDATED (pbeh-3c.gbw) ****
             **** DENSITY pbeh-3c.scfp WAS UPDATED ****
----------------
ORBITAL ENERGIES
----------------

  NO   OCC          E(Eh)            E(eV) 
   0   2.0000     -14.649263      -398.6267 
   1   2.0000     -10.487165      -285.3703 
   2   2.0000     -10.487141      -285.3696 
   3   2.0000     -10.473942      -285.0104 
   4   2.0000     -10.462856      -284.7088 
   5   2.0000     -10.462036      -284.6865 
   6   2.0000     -10.462024      -284.6861 
   7   2.0000      -7.066636      -192.2929 
   8   2.0000      -5.049871      -137.4140 
   9   2.0000      -5.033588      -136.9709 
  10   2.0000      -5.033392      -136.9656 
  11   2.0000      -2.003659       -54.5223 
  12   2.0000      -1.998610       -54.3849 
  13   2.0000      -1.998433       -54.3801 
  14   2.0000      -1.984322       -53.9961 
  15   2.0000      -1.984321       -53.9961 
  16   2.0000      -1.059644       -28.8344 
  17   2.0000      -0.909250       -24.7420 
  18   2.0000      -0.862379       -23.4665 
  19   2.0000      -0.818957       -22.2850 
  20   2.0000      -0.717595       -19.5268 
  21   2.0000      -0.714933       -19.4543 
  22   2.0000      -0.693531       -18.8719 
  23   2.0000      -0.607630       -16.5344 
  24   2.0000      -0.555815       -15.1245 
  25   2.0000      -0.540194       -14.6994 
  26   2.0000      -0.497836       -13.5468 
  27   2.0000      -0.479413       -13.0455 
  28   2.0000      -0.479342       -13.0436 
  29   2.0000      -0.474560       -12.9134 
  30   2.0000      -0.465841       -12.6762 
  31   2.0000      -0.427268       -11.6265 
  32   2.0000      -0.388641       -10.5755 
  33   2.0000      -0.341325        -9.2879 
  34   2.0000      -0.315765        -8.5924 
  35   2.0000      -0.311775        -8.4838 
  36   2.0000      -0.279190        -7.5972 
  37   2.0000      -0.277835        -7.5603 
  38   0.0000      -0.008240        -0.2242 
  39   0.0000       0.005743         0.1563 
  40   0.0000       0.032891         0.8950 
  41   0.0000       0.142175         3.8688 
  42   0.0000       0.172054         4.6818 
  43   0.0000       0.180902         4.9226 
  44   0.0000       0.190161         5.1745 
  45   0.0000       0.196368         5.3434 
  46   0.0000       0.199098         5.4177 
  47   0.0000       0.201439         5.4814 
  48   0.0000       0.222802         6.0627 
  49   0.0000       0.232329         6.3220 
  50   0.0000       0.269239         7.3264 
  51   0.0000       0.312531         8.5044 
  52   0.0000       0.324458         8.8289 
  53   0.0000       0.335987         9.1427 
  54   0.0000       0.364146         9.9089 
  55   0.0000       0.384660        10.4671 
  56   0.0000       0.439288        11.9536 
  57   0.0000       0.446809        12.1583 
  58   0.0000       0.458883        12.4868 
  59   0.0000       0.471748        12.8369 
  60   0.0000       0.483365        13.1530 
  61   0.0000       0.496394        13.5076 
  62   0.0000       0.497616        13.5408 
  63   0.0000       0.505496        13.7552 
  64   0.0000       0.518246        14.1022 
  65   0.0000       0.544637        14.8203 
  66   0.0000       0.553310        15.0563 
  67   0.0000       0.568268        15.4634 
  68   0.0000       0.580464        15.7952 
  69   0.0000       0.606552        16.5051 
  70   0.0000       0.617390        16.8000 
  71   0.0000       0.625419        17.0185 
  72   0.0000       0.642112        17.4728 
  73   0.0000       0.646455        17.5909 
  74   0.0000       0.647953        17.6317 
  75   0.0000       0.675279        18.3753 
  76   0.0000       0.682652        18.5759 
  77   0.0000       0.711183        19.3523 
  78   0.0000       0.727689        19.8014 
  79   0.0000       0.744211        20.2510 
  80   0.0000       0.835645        22.7390 
  81   0.0000       0.919769        25.0282 
  82   0.0000       0.931796        25.3555 
  83   0.0000       0.939968        25.5778 
  84   0.0000       0.966514        26.3002 
  85   0.0000       0.998676        27.1754 
  86   0.0000       1.020132        27.7592 
  87   0.0000       1.024388        27.8750 
  88   0.0000       1.024786        27.8858 
  89   0.0000       1.045085        28.4382 
  90   0.0000       1.053657        28.6715 
  91   0.0000       1.065278        28.9877 
  92   0.0000       1.079508        29.3749 
  93   0.0000       1.087286        29.5866 
  94   0.0000       1.141233        31.0545 
  95   0.0000       1.194661        32.5084 
  96   0.0000       1.198721        32.6189 
  97   0.0000       1.243076        33.8258 
  98   0.0000       1.289869        35.0991 
  99   0.0000       1.313371        35.7386 
 100   0.0000       1.335984        36.3540 
 101   0.0000       1.416677        38.5497 
 102   0.0000       1.524330        41.4791 
 103   0.0000       1.529615        41.6229 
 104   0.0000       1.564204        42.5642 
 105   0.0000       1.570775        42.7430 
 106   0.0000       1.734018        47.1850 
 107   0.0000       1.744004        47.4568 
 108   0.0000       1.744178        47.4615 
 109   0.0000       1.772181        48.2235 
 110   0.0000       1.879032        51.1311 
 111   0.0000       1.898945        51.6729 
 112   0.0000       1.964159        53.4475 
 113   0.0000       2.048907        55.7536 
 114   0.0000       2.082473        56.6670 
 115   0.0000       2.127971        57.9050 
 116   0.0000       2.182712        59.3946 
 117   0.0000       2.199454        59.8502 
 118   0.0000       2.233197        60.7684 
 119   0.0000       2.249794        61.2200 
 120   0.0000       2.254536        61.3490 
 121   0.0000       2.301551        62.6284 
 122   0.0000       2.302232        62.6469 
 123   0.0000       2.356489        64.1233 
 124   0.0000       2.386202        64.9319 
 125   0.0000       2.443031        66.4783 
 126   0.0000       2.584278        70.3218 
 127   0.0000       2.597270        70.6753 
 128   0.0000       2.691176        73.2306 
 129   0.0000       2.724973        74.1503 
 130   0.0000       2.774382        75.4948 
 131   0.0000       2.807282        76.3900 
 132   0.0000       2.833834        77.1125 
 133   0.0000       2.861619        77.8686 
 134   0.0000       3.083380        83.9030 
 135   0.0000       3.479114        94.6715 
 136   0.0000      13.326231       362.6252 
 137   0.0000      13.618069       370.5665 
 138   0.0000      13.683270       372.3407 
 139   0.0000      13.881642       377.7387 
 140   0.0000      14.130017       384.4973 
 141   0.0000      14.330177       389.9440 
 142   0.0000      18.726031       509.5612 
 143   0.0000      18.749318       510.1949 
 144   0.0000      19.151014       521.1256 
 145   0.0000      19.455324       529.4063 
 146   0.0000      56.011804      1524.1587 

                    ********************************
                    * MULLIKEN POPULATION ANALYSIS *
                    ********************************

-----------------------
MULLIKEN ATOMIC CHARGES
-----------------------
   0 C :   -0.833522
   1 I :    0.014838
   2 H :    0.258862
   3 H :    0.259147
   4 H :    0.259147
   5 C :   -0.304159
   6 C :   -0.012961
   7 N :   -0.392103
   8 H :    0.242987
   9 H :    0.235618
  10 H :    0.236812
  11 H :    0.235621
  12 H :    0.243059
  13 C :   -0.012905
  14 C :   -0.126286
  15 C :   -0.304155
Sum of atomic charges:    0.0000000

--------------------------------
MULLIKEN REDUCED ORBITAL CHARGES
--------------------------------
  0 C s       :     3.470405  s :     3.470405
      pz      :     1.177608  p :     3.331482
      px      :     1.177089
      py      :     0.976784
      dz2     :     0.006977  d :     0.031635
      dxz     :     0.007181
      dyz     :     0.005497
      dx2y2   :     0.006521
      dxy     :     0.005459
  1 I s       :     3.966634  s :     3.966634
      pz      :     3.983493  p :    10.966352
      px      :     3.982698
      py      :     3.000161
      dz2     :     2.009639  d :    10.052176
      dxz     :     2.000053
      dyz     :     2.006539
      dx2y2   :     2.029542
      dxy     :     2.006402
  2 H s       :     0.741138  s :     0.741138
  3 H s       :     0.740853  s :     0.740853
  4 H s       :     0.740853  s :     0.740853
  5 C s       :     3.268721  s :     3.268721
      pz      :     1.008197  p :     2.996852
      px      :     1.049801
      py      :     0.938855
      dz2     :     0.003929  d :     0.038586
      dxz     :     0.003456
      dyz     :     0.004903
      dx2y2   :     0.012974
      dxy     :     0.013325
  6 C s       :     3.153258  s :     3.153258
      pz      :     0.923611  p :     2.799433
      px      :     0.942358
      py      :     0.933464
      dz2     :     0.004512  d :     0.060270
      dxz     :     0.005867
      dyz     :     0.007000
      dx2y2   :     0.019976
      dxy     :     0.022915
  7 N s       :     3.617688  s :     3.617688
      pz      :     1.134355  p :     3.732074
      px      :     1.032523
      py      :     1.565195
      dz2     :     0.004475  d :     0.042342
      dxz     :     0.007339
      dyz     :     0.006767
      dx2y2   :     0.007064
      dxy     :     0.016696
  8 H s       :     0.757013  s :     0.757013
  9 H s       :     0.764382  s :     0.764382
 10 H s       :     0.763188  s :     0.763188
 11 H s       :     0.764379  s :     0.764379
 12 H s       :     0.756941  s :     0.756941
 13 C s       :     3.153225  s :     3.153225
      pz      :     0.923616  p :     2.799410
      px      :     0.942366
      py      :     0.933428
      dz2     :     0.004512  d :     0.060270
      dxz     :     0.005865
      dyz     :     0.007002
      dx2y2   :     0.019980
      dxy     :     0.022911
 14 C s       :     3.224660  s :     3.224660
      pz      :     0.935846  p :     2.860652
      px      :     0.903516
      py      :     1.021291
      dz2     :     0.003795  d :     0.040974
      dxz     :     0.007228
      dyz     :     0.002625
      dx2y2   :     0.015909
      dxy     :     0.011417
 15 C s       :     3.268716  s :     3.268716
      pz      :     1.008197  p :     2.996852
      px      :     1.049744
      py      :     0.938911
      dz2     :     0.003929  d :     0.038586
      dxz     :     0.003456
      dyz     :     0.004902
      dx2y2   :     0.012972
      dxy     :     0.013327


                     *******************************
                     * LOEWDIN POPULATION ANALYSIS *
                     *******************************

----------------------
LOEWDIN ATOMIC CHARGES
----------------------
   0 C :   -0.511126
   1 I :    0.044342
   2 H :    0.141542
   3 H :    0.141568
   4 H :    0.141568
   5 C :   -0.161475
   6 C :   -0.051348
   7 N :   -0.131336
   8 H :    0.134419
   9 H :    0.143886
  10 H :    0.141959
  11 H :    0.143887
  12 H :    0.134447
  13 C :   -0.051339
  14 C :   -0.099520
  15 C :   -0.161474

-------------------------------
LOEWDIN REDUCED ORBITAL CHARGES
-------------------------------
  0 C s       :     3.042159  s :     3.042159
      pz      :     1.177611  p :     3.414790
      px      :     1.177551
      py      :     1.059629
      dz2     :     0.011595  d :     0.054176
      dxz     :     0.011255
      dyz     :     0.009584
      dx2y2   :     0.012219
      dxy     :     0.009522
  1 I s       :     3.873328  s :     3.873328
      pz      :     3.971591  p :    11.006495
      px      :     3.970364
      py      :     3.064540
      dz2     :     2.014353  d :    10.075834
      dxz     :     2.000053
      dyz     :     2.008871
      dx2y2   :     2.043818
      dxy     :     2.008740
  2 H s       :     0.858458  s :     0.858458
  3 H s       :     0.858432  s :     0.858432
  4 H s       :     0.858432  s :     0.858432
  5 C s       :     2.899563  s :     2.899563
      pz      :     0.994765  p :     3.173018
      px      :     1.084660
      py      :     1.093593
      dz2     :     0.006609  d :     0.088894
      dxz     :     0.005858
      dyz     :     0.010018
      dx2y2   :     0.032956
      dxy     :     0.033454
  6 C s       :     2.884213  s :     2.884213
      pz      :     0.920986  p :     3.032959
      px      :     1.037446
      py      :     1.074528
      dz2     :     0.008603  d :     0.134176
      dxz     :     0.010065
      dyz     :     0.013999
      dx2y2   :     0.048909
      dxy     :     0.052600
  7 N s       :     3.197201  s :     3.197201
      pz      :     1.116754  p :     3.841668
      px      :     1.162594
      py      :     1.562321
      dz2     :     0.008368  d :     0.092467
      dxz     :     0.016859
      dyz     :     0.007398
      dx2y2   :     0.021744
      dxy     :     0.038099
  8 H s       :     0.865581  s :     0.865581
  9 H s       :     0.856114  s :     0.856114
 10 H s       :     0.858041  s :     0.858041
 11 H s       :     0.856113  s :     0.856113
 12 H s       :     0.865553  s :     0.865553
 13 C s       :     2.884206  s :     2.884206
      pz      :     0.920992  p :     3.032955
      px      :     1.037448
      py      :     1.074515
      dz2     :     0.008603  d :     0.134178
      dxz     :     0.010060
      dyz     :     0.014004
      dx2y2   :     0.048921
      dxy     :     0.052590
 14 C s       :     2.894649  s :     2.894649
      pz      :     0.929382  p :     3.112504
      px      :     1.098074
      py      :     1.085048
      dz2     :     0.006332  d :     0.092367
      dxz     :     0.015053
      dyz     :     0.003802
      dx2y2   :     0.037311
      dxy     :     0.029869
 15 C s       :     2.899563  s :     2.899563
      pz      :     0.994766  p :     3.173017
      px      :     1.084661
      py      :     1.093590
      dz2     :     0.006609  d :     0.088894
      dxz     :     0.005860
      dyz     :     0.010016
      dx2y2   :     0.032953
      dxy     :     0.033457


                      *****************************
                      * MAYER POPULATION ANALYSIS *
                      *****************************

  NA   - Mulliken gross atomic population
  ZA   - Total nuclear charge
  QA   - Mulliken gross atomic charge
  VA   - Mayer's total valence
  BVA  - Mayer's bonded valence
  FA   - Mayer's free valence

  ATOM       NA         ZA         QA         VA         BVA        FA
  0 C      6.8335     6.0000    -0.8335     3.7165     3.7165     0.0000
  1 I     24.9852    25.0000     0.0148     1.0649     1.0649     0.0000
  2 H      0.7411     1.0000     0.2589     0.8877     0.8877    -0.0000
  3 H      0.7409     1.0000     0.2591     0.8875     0.8875    -0.0000
  4 H      0.7409     1.0000     0.2591     0.8875     0.8875     0.0000
  5 C      6.3042     6.0000    -0.3042     3.8061     3.8061    -0.0000
  6 C      6.0130     6.0000    -0.0130     3.8124     3.8124    -0.0000
  7 N      7.3921     7.0000    -0.3921     3.1459     3.1459    -0.0000
  8 H      0.7570     1.0000     0.2430     0.8984     0.8984     0.0000
  9 H      0.7644     1.0000     0.2356     0.9118     0.9118     0.0000
 10 H      0.7632     1.0000     0.2368     0.9053     0.9053    -0.0000
 11 H      0.7644     1.0000     0.2356     0.9118     0.9118     0.0000
 12 H      0.7569     1.0000     0.2431     0.8984     0.8984     0.0000
 13 C      6.0129     6.0000    -0.0129     3.8125     3.8125     0.0000
 14 C      6.1263     6.0000    -0.1263     3.7419     3.7419    -0.0000
 15 C      6.3042     6.0000    -0.3042     3.8061     3.8061     0.0000

  Mayer bond orders larger than 0.100000
B(  0-C ,  1-I ) :   0.9943 B(  0-C ,  2-H ) :   0.9016 B(  0-C ,  3-H ) :   0.9013 
B(  0-C ,  4-H ) :   0.9013 B(  5-C ,  6-C ) :   1.3854 B(  5-C , 11-H ) :   0.9124 
B(  5-C , 14-C ) :   1.4114 B(  6-C ,  7-N ) :   1.4715 B(  6-C , 12-H ) :   0.9115 
B(  7-N , 13-C ) :   1.4715 B(  8-H , 13-C ) :   0.9115 B(  9-H , 15-C ) :   0.9124 
B( 10-H , 14-C ) :   0.9177 B( 13-C , 15-C ) :   1.3854 B( 14-C , 15-C ) :   1.4114 


-------
TIMINGS
-------

Total SCF time: 0 days 0 hours 2 min 7 sec 

Total time                  ....     127.028 sec
Sum of individual times     ....     116.710 sec  ( 91.9%)

Fock matrix formation       ....      99.444 sec  ( 78.3%)
  Split-RI-J                ....      10.579 sec  ( 10.6% of F)
  Chain of spheres X        ....      34.668 sec  ( 34.9% of F)
  XC integration            ....      27.793 sec  ( 27.9% of F)
    Basis function eval.    ....       4.140 sec  ( 14.9% of XC)
    Density eval.           ....       2.116 sec  (  7.6% of XC)
    XC-Functional eval.     ....       1.851 sec  (  6.7% of XC)
    XC-Potential eval.      ....       1.339 sec  (  4.8% of XC)
Diagonalization             ....       1.917 sec  (  1.5%)
Density matrix formation    ....       0.036 sec  (  0.0%)
Population analysis         ....       1.577 sec  (  1.2%)
Initial guess               ....       0.048 sec  (  0.0%)
Orbital Transformation      ....       0.000 sec  (  0.0%)
Orbital Orthonormalization  ....       0.000 sec  (  0.0%)
DIIS solution               ....       1.725 sec  (  1.4%)
SOSCF solution              ....       1.583 sec  (  1.2%)
Grid generation             ....      10.380 sec  (  8.2%)

Maximum memory used throughout the entire SCF-calculation: 55.6 MB


-------------------------------------------------------------------------------
                          DFT DISPERSION CORRECTION                            
                                                                               
                              DFTD3 V3.1  Rev 1                                
                          USING Becke-Johnson damping                          
-------------------------------------------------------------------------------
The PBEh-3c composite method is recognized
Using three-body term ABC
Active option DFTDOPT                   ...         4   

molecular C6(AA) [au] = 4436.492087 


            DFT-D V3
 parameters
 s6 scaling factor         :     1.0000 
 a1 scaling factor         :     0.4860 
 s8 scaling factor         :     0.0000 
 a2 scaling factor         :     4.5000 
 Damping factor alpha9(ATM):    16.0000 
 ad hoc parameters k1-k3   :    16.0000     1.3333    -4.0000 

 Edisp/kcal,au: -4.993753558917  -0.007958052002 
 E6   /kcal   :  -4.980503971 
 E8   /kcal   :  -0.000000000 
 E6(ABC)      :  -0.013249588 
 % E8         :   0.000000000 
 % E6(ABC)    :   0.265323222 

-------------------------   ----------------
Dispersion correction           -0.007958052
-------------------------   ----------------

 ** NOTE ** -> element i  will be treated as br
NOTIFICATION: Different basis set in ORCA and otool_gcp:
ORCA: 147  gCP: 153 
If you are NOT using ECPs, check your basis set inputs!
------------------   -----------------
gCP correction             0.023646150
------------------   -----------------

-------------------------   --------------------
FINAL SINGLE POINT ENERGY      -585.299418764730
-------------------------   --------------------


                            ***************************************
                            *     ORCA property calculations      *
                            ***************************************

                                    ---------------------
                                    Active property flags
                                    ---------------------
   (+) Dipole Moment


------------------------------------------------------------------------------
                       ORCA ELECTRIC PROPERTIES CALCULATION
------------------------------------------------------------------------------

Dipole Moment Calculation                       ... on
Quadrupole Moment Calculation                   ... off
Polarizability Calculation                      ... off
GBWName                                         ... pbeh-3c.gbw
Electron density                                ... pbeh-3c.scfp
The origin for moment calculation is the CENTER OF MASS  = ( 0.000044, -0.326776  0.000000)

-------------
DIPOLE MOMENT
-------------
                                X             Y             Z
Electronic contribution:      0.01317    -110.38663      -0.00000
Nuclear contribution   :     -0.01333     111.13220       0.00000
                        -----------------------------------------
Total Dipole Moment    :     -0.00016       0.74557      -0.00000
                        -----------------------------------------
Magnitude (a.u.)       :      0.74557
Magnitude (Debye)      :      1.89508



--------------------
Rotational spectrum 
--------------------
 
Rotational constants in cm-1:     0.195614     0.013096     0.012303 
Rotational constants in MHz :  5864.358576   392.612291   368.835356 

 Dipole components along the rotational axes: 
x,y,z [a.u.] :    -0.745565     0.000115    -0.000000 
x,y,z [Debye]:    -1.895076     0.000292    -0.000000 

 

Timings for individual modules:

Sum of individual times         ...      132.465 sec (=   2.208 min)
GTO integral calculation        ...        4.310 sec (=   0.072 min)   3.3 %
SCF iterations                  ...      128.155 sec (=   2.136 min)  96.7 %
                             ****ORCA TERMINATED NORMALLY****
TOTAL RUN TIME: 0 days 0 hours 2 minutes 23 seconds 385 msec
