
                                 *****************
                                 * O   R   C   A *
                                 *****************

                                            #,                                       
                                            ###                                      
                                            ####                                     
                                            #####                                    
                                            ######                                   
                                           ########,                                 
                                     ,,################,,,,,                         
                               ,,#################################,,                 
                          ,,##########################################,,             
                       ,#########################################, ''#####,          
                    ,#############################################,,   '####,        
                  ,##################################################,,,,####,       
                ,###########''''           ''''###############################       
              ,#####''   ,,,,##########,,,,          '''####'''          '####       
            ,##' ,,,,###########################,,,                        '##       
           ' ,,###''''                  '''############,,,                           
         ,,##''                                '''############,,,,        ,,,,,,###''
      ,#''                                            '''#######################'''  
     '                                                          ''''####''''         
             ,#######,   #######,   ,#######,      ##                                
            ,#'     '#,  ##    ##  ,#'     '#,    #''#        ######   ,####,        
            ##       ##  ##   ,#'  ##            #'  '#       #        #'  '#        
            ##       ##  #######   ##           ,######,      #####,   #    #        
            '#,     ,#'  ##    ##  '#,     ,#' ,#      #,         ##   #,  ,#        
             '#######'   ##     ##  '#######'  #'      '#     #####' # '####'        



                  #######################################################
                  #                        -***-                        #
                  #          Department of theory and spectroscopy      #
                  #    Directorship and core code : Frank Neese         #
                  #        Max Planck Institute fuer Kohlenforschung    #
                  #                Kaiser Wilhelm Platz 1               #
                  #                 D-45470 Muelheim/Ruhr               #
                  #                      Germany                        #
                  #                                                     #
                  #                  All rights reserved                #
                  #                        -***-                        #
                  #######################################################


                         Program Version 5.0.3 -  RELEASE  -


 With contributions from (in alphabetic order):
   Daniel Aravena         : Magnetic Suceptibility
   Michael Atanasov       : Ab Initio Ligand Field Theory (pilot matlab implementation)
   Alexander A. Auer      : GIAO ZORA, VPT2 properties, NMR spectrum
   Ute Becker             : Parallelization
   Giovanni Bistoni       : ED, misc. LED, open-shell LED, HFLD
   Martin Brehm           : Molecular dynamics
   Dmytro Bykov           : SCF Hessian
   Vijay G. Chilkuri      : MRCI spin determinant printing, contributions to CSF-ICE
   Dipayan Datta          : RHF DLPNO-CCSD density
   Achintya Kumar Dutta   : EOM-CC, STEOM-CC
   Dmitry Ganyushin       : Spin-Orbit,Spin-Spin,Magnetic field MRCI
   Miquel Garcia          : C-PCM and meta-GGA Hessian, CC/C-PCM, Gaussian charge scheme
   Yang Guo               : DLPNO-NEVPT2, F12-NEVPT2, CIM, IAO-localization
   Andreas Hansen         : Spin unrestricted coupled pair/coupled cluster methods
   Benjamin Helmich-Paris : MC-RPA, TRAH-SCF, COSX integrals
   Lee Huntington         : MR-EOM, pCC
   Robert Izsak           : Overlap fitted RIJCOSX, COSX-SCS-MP3, EOM
   Marcus Kettner         : VPT2
   Christian Kollmar      : KDIIS, OOCD, Brueckner-CCSD(T), CCSD density, CASPT2, CASPT2-K
   Simone Kossmann        : Meta GGA functionals, TD-DFT gradient, OOMP2, MP2 Hessian
   Martin Krupicka        : Initial AUTO-CI
   Lucas Lang             : DCDCAS
   Marvin Lechner         : AUTO-CI (C++ implementation), FIC-MRCC
   Dagmar Lenk            : GEPOL surface, SMD
   Dimitrios Liakos       : Extrapolation schemes; Compound Job, initial MDCI parallelization
   Dimitrios Manganas     : Further ROCIS development; embedding schemes
   Dimitrios Pantazis     : SARC Basis sets
   Anastasios Papadopoulos: AUTO-CI, single reference methods and gradients
   Taras Petrenko         : DFT Hessian,TD-DFT gradient, ASA, ECA, R-Raman, ABS, FL, XAS/XES, NRVS
   Peter Pinski           : DLPNO-MP2, DLPNO-MP2 Gradient
   Christoph Reimann      : Effective Core Potentials
   Marius Retegan         : Local ZFS, SOC
   Christoph Riplinger    : Optimizer, TS searches, QM/MM, DLPNO-CCSD(T), (RO)-DLPNO pert. Triples
   Tobias Risthaus        : Range-separated hybrids, TD-DFT gradient, RPA, STAB
   Michael Roemelt        : Original ROCIS implementation
   Masaaki Saitow         : Open-shell DLPNO-CCSD energy and density
   Barbara Sandhoefer     : DKH picture change effects
   Avijit Sen             : IP-ROCIS
   Kantharuban Sivalingam : CASSCF convergence, NEVPT2, FIC-MRCI
   Bernardo de Souza      : ESD, SOC TD-DFT
   Georgi Stoychev        : AutoAux, RI-MP2 NMR, DLPNO-MP2 response
   Willem Van den Heuvel  : Paramagnetic NMR
   Boris Wezisla          : Elementary symmetry handling
   Frank Wennmohs         : Technical directorship


 We gratefully acknowledge several colleagues who have allowed us to
 interface, adapt or use parts of their codes:
   Stefan Grimme, W. Hujo, H. Kruse, P. Pracht,  : VdW corrections, initial TS optimization,
                  C. Bannwarth, S. Ehlert          DFT functionals, gCP, sTDA/sTD-DF
   Ed Valeev, F. Pavosevic, A. Kumar             : LibInt (2-el integral package), F12 methods
   Garnet Chan, S. Sharma, J. Yang, R. Olivares  : DMRG
   Ulf Ekstrom                                   : XCFun DFT Library
   Mihaly Kallay                                 : mrcc  (arbitrary order and MRCC methods)
   Jiri Pittner, Ondrej Demel                    : Mk-CCSD
   Frank Weinhold                                : gennbo (NPA and NBO analysis)
   Christopher J. Cramer and Donald G. Truhlar   : smd solvation model
   Lars Goerigk                                  : TD-DFT with DH, B97 family of functionals
   V. Asgeirsson, H. Jonsson                     : NEB implementation
   FAccTs GmbH                                   : IRC, NEB, NEB-TS, DLPNO-Multilevel, CI-OPT
                                                   MM, QMMM, 2- and 3-layer-ONIOM, Crystal-QMMM,
                                                   LR-CPCM, SF, NACMEs, symmetry and pop. for TD-DFT,
                                                   nearIR, NL-DFT gradient (VV10), updates on ESD,
                                                   ML-optimized integration grids
   S Lehtola, MJT Oliveira, MAL Marques          : LibXC Library
   Liviu Ungur et al                             : ANISO software


 Your calculation uses the libint2 library for the computation of 2-el integrals
 For citations please refer to: http://libint.valeyev.net

 Your ORCA version has been built with support for libXC version: 5.1.0
 For citations please refer to: https://tddft.org/programs/libxc/

 This ORCA versions uses:
   CBLAS   interface :  Fast vector & matrix operations
   LAPACKE interface :  Fast linear algebra routines
   SCALAPACK package :  Parallel linear algebra routines
   Shared memory     :  Shared parallel matrices
   BLAS/LAPACK       :  OpenBLAS 0.3.15  USE64BITINT DYNAMIC_ARCH NO_AFFINITY Haswell SINGLE_THREADED
        Core in use  :  Haswell
   Copyright (c) 2011-2014, The OpenBLAS Project




***************************************
The coordinates will be read from file: E29.xyz
***************************************


Your calculation utilizes the geometrical counterpoise correction gCP
Please cite in your paper:
H.Kruse, S. Grimme J.Chem.Phys., 136, (2012), 154101 
   

Your calculation utilizes the atom-pairwise dispersion correction
with the Becke-Johnson damping scheme (D3BJ)
Cite in your paper:
S.Grimme, S.Ehrlich, L.Goerigk, J Comput Chem, (2011), 32, 1456–1465 
S.Grimme, J.Antony, S.Ehrlich and H.Krieg, J.Chem.Phys., 132, (2010), 154104 
   

Your calculation employs the composite approach PBEh-3c.
Please cite in your paper:
S. Grimme, J. G. Brandenburg, C. Bannwarth, A. Hansen J.Chem.Phys., 143, (2015), 054107 
   

================================================================================

----- Orbital basis set information -----
Your calculation utilizes the basis: def2-mSVP

----- AuxJ basis set information -----
Your calculation utilizes the auxiliary basis: def2/J
   F. Weigend, Phys. Chem. Chem. Phys. 8, 1057 (2006).

================================================================================
                                        WARNINGS
                       Please study these warnings very carefully!
================================================================================


INFO   : the flag for use of the SHARK integral package has been found!

================================================================================
                                       INPUT FILE
================================================================================
NAME = pbeh-3c.inp
|  1> ! PBEh-3c def2/J TightSCF DefGrid3
|  2> 
|  3> %maxcore 60000
|  4> 
|  5> %pal
|  6> nprocs 4
|  7> end
|  8> 
|  9> *xyzfile 0 1 E29.xyz
| 10> 
| 11>                          ****END OF INPUT****
================================================================================

                       ****************************
                       * Single Point Calculation *
                       ****************************

---------------------------------
CARTESIAN COORDINATES (ANGSTROEM)
---------------------------------
  O      0.000000    0.000000    1.490890
  C     -1.168020    0.134863    0.666264
  C     -0.733407   -0.225161   -0.755818
  C      0.733407    0.225161   -0.755818
  C      1.168020   -0.134863    0.666264
  H     -1.948982   -0.520287    1.058629
  H     -1.528826    1.169574    0.718316
  H     -1.338386    0.268638   -1.517496
  H     -0.799386   -1.304610   -0.915340
  H      1.338386   -0.268638   -1.517496
  H      0.799386    1.304610   -0.915340
  H      1.528826   -1.169574    0.718316
  H      1.948982    0.520287    1.058629

----------------------------
CARTESIAN COORDINATES (A.U.)
----------------------------
  NO LB      ZA    FRAG     MASS         X           Y           Z
   0 O     8.0000    0    15.999    0.000000    0.000000    2.817375
   1 C     6.0000    0    12.011   -2.207239    0.254855    1.259056
   2 C     6.0000    0    12.011   -1.385939   -0.425493   -1.428290
   3 C     6.0000    0    12.011    1.385939    0.425493   -1.428290
   4 C     6.0000    0    12.011    2.207239   -0.254855    1.259056
   5 H     1.0000    0     1.008   -3.683042   -0.983200    2.000519
   6 H     1.0000    0     1.008   -2.889062    2.210174    1.357421
   7 H     1.0000    0     1.008   -2.529184    0.507651   -2.867652
   8 H     1.0000    0     1.008   -1.510620   -2.465356   -1.729742
   9 H     1.0000    0     1.008    2.529184   -0.507651   -2.867652
  10 H     1.0000    0     1.008    1.510620    2.465356   -1.729742
  11 H     1.0000    0     1.008    2.889062   -2.210174    1.357421
  12 H     1.0000    0     1.008    3.683042    0.983200    2.000519

--------------------------------
INTERNAL COORDINATES (ANGSTROEM)
--------------------------------
 O      0   0   0     0.000000000000     0.00000000     0.00000000
 C      1   0   0     1.436129839727     0.00000000     0.00000000
 C      2   1   0     1.529975355369   106.29462555     0.00000000
 C      3   2   1     1.534383909305   101.68287141   329.12544555
 C      1   2   3     1.436129839727   109.91267342    12.09876177
 H      2   1   3     1.092278903748   108.59737826   122.24183358
 H      2   1   3     1.097048619271   109.19685372   240.10957664
 H      3   2   1     1.090866710723   112.63972465   207.40118747
 H      3   2   1     1.093165368979   110.53945546    86.28155849
 H      4   3   2     1.090866710723   113.41023001   157.89172914
 H      4   3   2     1.093165368979   110.33463155   279.39831423
 H      5   1   2     1.097048619271   109.19685372   252.20833841
 H      5   1   2     1.092278903748   108.59737826   134.34059535

---------------------------
INTERNAL COORDINATES (A.U.)
---------------------------
 O      0   0   0     0.000000000000     0.00000000     0.00000000
 C      1   0   0     2.713892089837     0.00000000     0.00000000
 C      2   1   0     2.891234413297   106.29462555     0.00000000
 C      3   2   1     2.899565372882   101.68287141   329.12544555
 C      1   2   3     2.713892089837   109.91267342    12.09876177
 H      2   1   3     2.064107989944   108.59737826   122.24183358
 H      2   1   3     2.073121446018   109.19685372   240.10957664
 H      3   2   1     2.061439331877   112.63972465   207.40118747
 H      3   2   1     2.065783166457   110.53945546    86.28155849
 H      4   3   2     2.061439331877   113.41023001   157.89172914
 H      4   3   2     2.065783166457   110.33463155   279.39831423
 H      5   1   2     2.073121446018   109.19685372   252.20833841
 H      5   1   2     2.064107989944   108.59737826   134.34059535

---------------------
BASIS SET INFORMATION
---------------------
There are 3 groups of distinct atoms

 Group   1 Type O   : 8s4p1d contracted to 4s2p1d pattern {5111/31/1}
 Group   2 Type C   : 8s4p1d contracted to 4s2p1d pattern {5111/31/1}
 Group   3 Type H   : 4s contracted to 2s pattern {31}

Atom   0O    basis set group =>   1
Atom   1C    basis set group =>   2
Atom   2C    basis set group =>   2
Atom   3C    basis set group =>   2
Atom   4C    basis set group =>   2
Atom   5H    basis set group =>   3
Atom   6H    basis set group =>   3
Atom   7H    basis set group =>   3
Atom   8H    basis set group =>   3
Atom   9H    basis set group =>   3
Atom  10H    basis set group =>   3
Atom  11H    basis set group =>   3
Atom  12H    basis set group =>   3
---------------------------------
AUXILIARY/J BASIS SET INFORMATION
---------------------------------
There are 3 groups of distinct atoms

 Group   1 Type O   : 12s5p4d2f1g contracted to 6s4p3d1f1g pattern {711111/2111/211/2/1}
 Group   2 Type C   : 12s5p4d2f1g contracted to 6s4p3d1f1g pattern {711111/2111/211/2/1}
 Group   3 Type H   : 5s2p1d contracted to 3s1p1d pattern {311/2/1}

Atom   0O    basis set group =>   1
Atom   1C    basis set group =>   2
Atom   2C    basis set group =>   2
Atom   3C    basis set group =>   2
Atom   4C    basis set group =>   2
Atom   5H    basis set group =>   3
Atom   6H    basis set group =>   3
Atom   7H    basis set group =>   3
Atom   8H    basis set group =>   3
Atom   9H    basis set group =>   3
Atom  10H    basis set group =>   3
Atom  11H    basis set group =>   3
Atom  12H    basis set group =>   3


           ************************************************************
           *        Program running with 4 parallel MPI-processes     *
           *              working on a common directory               *
           ************************************************************
------------------------------------------------------------------------------
                           ORCA GTO INTEGRAL CALCULATION
                           -- RI-GTO INTEGRALS CHOSEN --
------------------------------------------------------------------------------
------------------------------------------------------------------------------
                   ___                                                        
                  /   \      - P O W E R E D   B Y -                         
                 /     \                                                     
                 |  |  |   _    _      __       _____    __    __             
                 |  |  |  | |  | |    /  \     |  _  \  |  |  /  |          
                  \  \/   | |  | |   /    \    | | | |  |  | /  /          
                 / \  \   | |__| |  /  /\  \   | |_| |  |  |/  /          
                |  |  |   |  __  | /  /__\  \  |    /   |      \           
                |  |  |   | |  | | |   __   |  |    \   |  |\   \          
                \     /   | |  | | |  |  |  |  | |\  \  |  | \   \       
                 \___/    |_|  |_| |__|  |__|  |_| \__\ |__|  \__/        
                                                                              
                      - O R C A' S   B I G   F R I E N D -                    
                                      &                                       
                       - I N T E G R A L  F E E D E R -                       
                                                                              
 v1 FN, 2020, v2 2021                                                         
------------------------------------------------------------------------------


Reading SHARK input file pbeh-3c.SHARKINP.tmp ... ok
----------------------
SHARK INTEGRAL PACKAGE
----------------------

Number of atoms                             ...     13
Number of basis functions                   ...     91
Number of shells                            ...     51
Maximum angular momentum                    ...      2
Integral batch strategy                     ... SHARK/LIBINT Hybrid
RI-J (if used) integral strategy            ... SPLIT-RIJ (Revised 2003 algorithm where possible)
Printlevel                                  ...      1
Contraction scheme used                     ... SEGMENTED contraction
Coulomb Range Separation                    ... NOT USED
Exchange Range Separation                   ... NOT USED
Finite Nucleus Model                        ... NOT USED
Auxiliary Coulomb fitting basis             ... AVAILABLE
   # of basis functions in Aux-J            ...    333
   # of shells in Aux-J                     ...    115
   Maximum angular momentum in Aux-J        ...      4
Auxiliary J/K fitting basis                 ... NOT available
Auxiliary Correlation fitting basis         ... NOT available
Auxiliary 'external' fitting basis          ... NOT available
Integral threshold                          ...     2.500000e-11
Primitive cut-off                           ...     2.500000e-12
Primitive pair pre-selection threshold      ...     2.500000e-12

Calculating pre-screening integrals         ... done (  0.1 sec) Dimension = 51
Organizing shell pair data                  ... done (  0.2 sec)
Shell pair information
Total number of shell pairs                 ...      1326
Shell pairs after pre-screening             ...      1299
Total number of primitive shell pairs       ...      4842
Primitive shell pairs kept                  ...      3651
          la=0 lb=0:    639 shell pairs
          la=1 lb=0:    360 shell pairs
          la=1 lb=1:     55 shell pairs
          la=2 lb=0:    180 shell pairs
          la=2 lb=1:     50 shell pairs
          la=2 lb=2:     15 shell pairs

Calculating one electron integrals          ... done (  0.0 sec)
Calculating RI/J V-Matrix + Cholesky decomp.... done (  0.6 sec)
Calculating Nuclear repulsion               ... done (  0.0 sec) ENN=    190.363268211200 Eh

SHARK setup successfully completed in   1.9 seconds

Maximum memory used throughout the entire GTOINT-calculation: 10.0 MB


           ************************************************************
           *        Program running with 4 parallel MPI-processes     *
           *              working on a common directory               *
           ************************************************************
-------------------------------------------------------------------------------
                                 ORCA SCF
-------------------------------------------------------------------------------

------------
SCF SETTINGS
------------
Hamiltonian:
 Density Functional     Method          .... DFT(GTOs)
 Exchange Functional    Exchange        .... PBE
   PBE kappa parameter   XKappa         ....  1.024500
   PBE mue parameter    XMuePBE         ....  0.123457
 Correlation Functional Correlation     .... PBE
   PBE beta parameter  CBetaPBE         ....  0.030000
 LDA part of GGA corr.  LDAOpt          .... PW91-LDA
 Gradients option       PostSCFGGA      .... off
 Hybrid DFT is turned on
   Fraction HF Exchange ScalHFX         ....  0.420000
   Scaling of DF-GGA-X  ScalDFX         ....  0.580000
   Scaling of DF-GGA-C  ScalDFC         ....  1.000000
   Scaling of DF-LDA-C  ScalLDAC        ....  1.000000
   Perturbative correction              ....  0.000000
   Density functional embedding theory  .... OFF
 RI-approximation to the Coulomb term is turned on
   Number of AuxJ basis functions       .... 333
   RIJ-ON(X) (HFX calculated with O(N)) .... on
   Number of AuxJ basis functions       .... 333
   RIJ-COSX (HFX calculated with COS-X)).... on


General Settings:
 Integral files         IntName         .... pbeh-3c
 Hartree-Fock type      HFTyp           .... RHF
 Total Charge           Charge          ....    0
 Multiplicity           Mult            ....    1
 Number of Electrons    NEL             ....   40
 Basis Dimension        Dim             ....   91
 Nuclear Repulsion      ENuc            ....    190.3632682112 Eh

Convergence Acceleration:
 DIIS                   CNVDIIS         .... on
   Start iteration      DIISMaxIt       ....    12
   Startup error        DIISStart       ....  0.200000
   # of expansion vecs  DIISMaxEq       ....     5
   Bias factor          DIISBfac        ....   1.050
   Max. coefficient     DIISMaxC        ....  10.000
 Trust-Rad. Augm. Hess. CNVTRAH         .... auto
   Auto Start mean grad. ratio tolernc. ....  1.125000
   Auto Start start iteration           ....    20
   Auto Start num. interpolation iter.  ....    10
   Max. Number of Micro iterations      ....    16
   Max. Number of Macro iterations      .... Maxiter - #DIIS iter
   Number of Davidson start vectors     ....     2
   Converg. threshold I  (grad. norm)   ....   1.000e-05
   Converg. threshold II (energy diff.) ....   1.000e-08
   Grad. Scal. Fac. for Micro threshold ....   0.100
   Minimum threshold for Micro iter.    ....   0.010
   NR start threshold (gradient norm)   ....   0.001
   Initial trust radius                 ....   0.400
   Minimum AH scaling param. (alpha)    ....   1.000
   Maximum AH scaling param. (alpha)    .... 1000.000
   Orbital update algorithm             .... Taylor
   White noise on init. David. guess    .... on
   Maximum white noise                  ....   0.010
   Quad. conv. algorithm                .... NR
   COSX micro iterations for RIJONX calc.... off
 SOSCF                  CNVSOSCF        .... on
   Start iteration      SOSCFMaxIt      ....   150
   Startup grad/error   SOSCFStart      ....  0.003300
 Level Shifting         CNVShift        .... on
   Level shift para.    LevelShift      ....    0.2500
   Turn off err/grad.   ShiftErr        ....    0.0010
 Zerner damping         CNVZerner       .... off
 Static damping         CNVDamp         .... on
   Fraction old density DampFac         ....    0.7000
   Max. Damping (<1)    DampMax         ....    0.9800
   Min. Damping (>=0)   DampMin         ....    0.0000
   Turn off err/grad.   DampErr         ....    0.1000
 Fernandez-Rico         CNVRico         .... off

SCF Procedure:
 Maximum # iterations   MaxIter         ....   125
 SCF integral mode      SCFMode         .... Direct
   Integral package                     .... SHARK and LIBINT hybrid scheme
 Reset frequency        DirectResetFreq ....    20
 Integral Threshold     Thresh          ....  2.500e-11 Eh
 Primitive CutOff       TCut            ....  2.500e-12 Eh

Convergence Tolerance:
 Convergence Check Mode ConvCheckMode   .... Total+1el-Energy
 Convergence forced     ConvForced      .... 0
 Energy Change          TolE            ....  1.000e-08 Eh
 1-El. energy change                    ....  1.000e-05 Eh
 Orbital Gradient       TolG            ....  1.000e-05
 Orbital Rotation angle TolX            ....  1.000e-05
 DIIS Error             TolErr          ....  5.000e-07


Diagonalization of the overlap matrix:
Smallest eigenvalue                        ... 6.128e-03
Time for diagonalization                   ...    0.002 sec
Threshold for overlap eigenvalues          ... 1.000e-08
Number of eigenvalues below threshold      ... 0
Time for construction of square roots      ...    0.226 sec
Total time needed                          ...    0.229 sec

--------------------------------
INITIAL GUESS: MINIMAL BASIS EHT
--------------------------------
The minimal basis has 33 functions
EHT matrix was diagonalized
Basis set overlap was calculated now projecting the orbitals
Using GuessMode=FMatrix for the initial guess
C*T matrix was formed
Effective Fockian was calculated
Effective Fockian was diagonalized
Initial density was built
                      ------------------
                      INITIAL GUESS DONE
                      ------------------
-------------------
DFT GRID GENERATION
-------------------

General Integration Accuracy     IntAcc      ... 4.959
Radial Grid Type                 RadialGrid  ... OptM3 with GC (2021)
Angular Grid (max. ang.)         AngularGrid ... 6 (Lebedev-590)
Angular grid pruning method      GridPruning ... 4 (adaptive)
Weight generation scheme         WeightScheme... Becke
Basis function cutoff            BFCut       ... 1.0000e-11
Integration weight cutoff        WCut        ... 1.0000e-14
Angular grids for H and He will be reduced by one unit
Partially contracted basis set               ... off
Rotationally invariant grid construction     ... off

Total number of grid points                  ...   141396
Total number of batches                      ...     2218
Average number of points per batch           ...       63
Average number of grid points per atom       ...    10877
Time for grid setup =    2.443 sec

--------------------
COSX GRID GENERATION
--------------------

GRIDX 1
-------
General Integration Accuracy     IntAcc      ... 4.020
Radial Grid Type                 RadialGrid  ... OptM3 with GC (2021)
Angular Grid (max. ang.)         AngularGrid ... 2 (Lebedev-110)
Angular grid pruning method      GridPruning ... 4 (adaptive)
Weight generation scheme         WeightScheme... Becke
Basis function cutoff            BFCut       ... 1.0000e-11
Integration weight cutoff        WCut        ... 1.0000e-14
Angular grids for H and He will be reduced by one unit
Partially contracted basis set               ... on
Rotationally invariant grid construction     ... off

Total number of grid points                  ...    15195
Total number of batches                      ...      246
Average number of points per batch           ...       61
Average number of grid points per atom       ...     1169
UseSFitting                                  ... on

GRIDX 2
-------
General Integration Accuracy     IntAcc      ... 4.338
Radial Grid Type                 RadialGrid  ... OptM3 with GC (2021)
Angular Grid (max. ang.)         AngularGrid ... 3 (Lebedev-194)
Angular grid pruning method      GridPruning ... 4 (adaptive)
Weight generation scheme         WeightScheme... Becke
Basis function cutoff            BFCut       ... 1.0000e-11
Integration weight cutoff        WCut        ... 1.0000e-14
Angular grids for H and He will be reduced by one unit
Partially contracted basis set               ... on
Rotationally invariant grid construction     ... off

Total number of grid points                  ...    33226
Total number of batches                      ...      527
Average number of points per batch           ...       63
Average number of grid points per atom       ...     2556
UseSFitting                                  ... on

GRIDX 3
-------
General Integration Accuracy     IntAcc      ... 4.871
Radial Grid Type                 RadialGrid  ... OptM3 with GC (2021)
Angular Grid (max. ang.)         AngularGrid ... 4 (Lebedev-302)
Angular grid pruning method      GridPruning ... 4 (adaptive)
Weight generation scheme         WeightScheme... Becke
Basis function cutoff            BFCut       ... 1.0000e-11
Integration weight cutoff        WCut        ... 1.0000e-14
Angular grids for H and He will be reduced by one unit
Partially contracted basis set               ... on
Rotationally invariant grid construction     ... off

Total number of grid points                  ...    65341
Total number of batches                      ...     1028
Average number of points per batch           ...       63
Average number of grid points per atom       ...     5026
UseSFitting                                  ... on

Time for X-Grid setup             =    3.860 sec

--------------
SCF ITERATIONS
--------------
ITER       Energy         Delta-E        Max-DP      RMS-DP      [F,P]     Damp
               ***  Starting incremental Fock matrix formation  ***
  0   -231.3914981220   0.000000000000 0.17196346  0.00613061  0.4885744 0.7000
  1   -231.5940059780  -0.202507856085 0.09233947  0.00360371  0.2783070 0.7000
                               ***Turning on DIIS***
  2   -231.7063286186  -0.112322640544 0.04367633  0.00198660  0.1959860 0.7000
  3   -231.7835726922  -0.077244073570 0.02519746  0.00125003  0.1377461 0.7000
  4   -231.8383953946  -0.054822702433 0.05597893  0.00308315  0.0964471 0.0000
  5   -231.9695262141  -0.131130819527 0.00818221  0.00024187  0.0076482 0.0000
  6   -231.9696145680  -0.000088353862 0.00260077  0.00007626  0.0045486 0.0000
                      *** Initiating the SOSCF procedure ***
                           *** Shutting down DIIS ***
                      *** Re-Reading the Fockian *** 
                      *** Removing any level shift *** 
ITER      Energy       Delta-E        Grad      Rot      Max-DP    RMS-DP
  7   -231.96964804  -0.0000334730  0.000390  0.000390  0.001269  0.000049
               *** Restarting incremental Fock matrix formation ***
  8   -231.96962862   0.0000194241  0.000140  0.000176  0.000395  0.000019
  9   -231.96962868  -0.0000000608  0.000149  0.000059  0.000220  0.000010
 10   -231.96962894  -0.0000002618  0.000015  0.000015  0.000044  0.000002
 11   -231.96962894   0.0000000011  0.000014  0.000008  0.000022  0.000001
                 **** Energy Check signals convergence ****
              ***Rediagonalizing the Fockian in SOSCF/NRSCF***

               *****************************************************
               *                     SUCCESS                       *
               *           SCF CONVERGED AFTER  12 CYCLES          *
               *****************************************************

Old exchange energy                            =    -13.365349231 Eh
New exchange energy                            =    -13.365353406 Eh
Exchange energy change after final integration =     -0.000004175 Eh
Total energy after final integration           =   -231.969633119 Eh
Final COS-X integration done in                =     2.114 sec

----------------
TOTAL SCF ENERGY
----------------

Total Energy       :         -231.96963312 Eh           -6312.21462 eV

Components:
Nuclear Repulsion  :          190.36326821 Eh            5180.04788 eV
Electronic Energy  :         -422.33290133 Eh          -11492.26250 eV
One Electron Energy:         -691.18404180 Eh          -18808.07396 eV
Two Electron Energy:          268.85114047 Eh            7315.81146 eV
Max COSX asymmetry :            0.00000272 Eh               0.00007 eV

Virial components:
Potential Energy   :         -462.10738679 Eh          -12574.58127 eV
Kinetic Energy     :          230.13775367 Eh            6262.36665 eV
Virial Ratio       :            2.00795993


DFT components:
N(Alpha)           :       20.000001660829 electrons
N(Beta)            :       20.000001660829 electrons
N(Total)           :       40.000003321658 electrons
E(X)               :      -17.745021613185 Eh       
E(C)               :       -1.731064526946 Eh       
E(XC)              :      -19.476086140131 Eh       
DFET-embed. en.    :        0.000000000000 Eh       

---------------
SCF CONVERGENCE
---------------

  Last Energy change         ...   -6.0668e-09  Tolerance :   1.0000e-08
  Last MAX-Density change    ...    1.3323e-15  Tolerance :   1.0000e-07
  Last RMS-Density change    ...    4.7248e-17  Tolerance :   5.0000e-09
  Last Orbital Gradient      ...    7.3507e-07  Tolerance :   1.0000e-05
  Last Orbital Rotation      ...    1.5778e-06  Tolerance :   1.0000e-05

             **** THE GBW FILE WAS UPDATED (pbeh-3c.gbw) ****
             **** DENSITY pbeh-3c.scfp WAS UPDATED ****
             **** ENERGY FILE WAS UPDATED (pbeh-3c.en.tmp) ****
             **** THE GBW FILE WAS UPDATED (pbeh-3c.gbw) ****
             **** DENSITY pbeh-3c.scfp WAS UPDATED ****
----------------
ORBITAL ENERGIES
----------------

  NO   OCC          E(Eh)            E(eV) 
   0   2.0000     -19.481528      -530.1193 
   1   2.0000     -10.477901      -285.1182 
   2   2.0000     -10.477861      -285.1171 
   3   2.0000     -10.440555      -284.1019 
   4   2.0000     -10.440339      -284.0961 
   5   2.0000      -1.127575       -30.6829 
   6   2.0000      -0.873859       -23.7789 
   7   2.0000      -0.818763       -22.2797 
   8   2.0000      -0.666883       -18.1468 
   9   2.0000      -0.662466       -18.0266 
  10   2.0000      -0.563471       -15.3328 
  11   2.0000      -0.552392       -15.0313 
  12   2.0000      -0.483399       -13.1539 
  13   2.0000      -0.483148       -13.1471 
  14   2.0000      -0.457172       -12.4403 
  15   2.0000      -0.407084       -11.0773 
  16   2.0000      -0.402081       -10.9412 
  17   2.0000      -0.383931       -10.4473 
  18   2.0000      -0.365476        -9.9451 
  19   2.0000      -0.296066        -8.0564 
  20   0.0000       0.133983         3.6459 
  21   0.0000       0.160732         4.3737 
  22   0.0000       0.169451         4.6110 
  23   0.0000       0.185477         5.0471 
  24   0.0000       0.197565         5.3760 
  25   0.0000       0.207566         5.6482 
  26   0.0000       0.223088         6.0705 
  27   0.0000       0.226346         6.1592 
  28   0.0000       0.258637         7.0379 
  29   0.0000       0.264960         7.2099 
  30   0.0000       0.273549         7.4437 
  31   0.0000       0.293461         7.9855 
  32   0.0000       0.325665         8.8618 
  33   0.0000       0.501968        13.6592 
  34   0.0000       0.506201        13.7744 
  35   0.0000       0.525475        14.2989 
  36   0.0000       0.553138        15.0517 
  37   0.0000       0.561501        15.2792 
  38   0.0000       0.593876        16.1602 
  39   0.0000       0.633996        17.2519 
  40   0.0000       0.658820        17.9274 
  41   0.0000       0.691291        18.8110 
  42   0.0000       0.726125        19.7589 
  43   0.0000       0.750480        20.4216 
  44   0.0000       0.779786        21.2190 
  45   0.0000       0.910957        24.7884 
  46   0.0000       0.968347        26.3500 
  47   0.0000       0.994175        27.0529 
  48   0.0000       1.001162        27.2430 
  49   0.0000       1.012043        27.5391 
  50   0.0000       1.030274        28.0352 
  51   0.0000       1.040242        28.3064 
  52   0.0000       1.051631        28.6163 
  53   0.0000       1.065784        29.0015 
  54   0.0000       1.187624        32.3169 
  55   0.0000       1.229180        33.4477 
  56   0.0000       1.231595        33.5134 
  57   0.0000       1.343548        36.5598 
  58   0.0000       1.388495        37.7829 
  59   0.0000       1.440972        39.2108 
  60   0.0000       1.484326        40.3906 
  61   0.0000       1.609129        43.7866 
  62   0.0000       1.649271        44.8789 
  63   0.0000       1.732250        47.1369 
  64   0.0000       1.848473        50.2995 
  65   0.0000       1.865997        50.7764 
  66   0.0000       1.937073        52.7104 
  67   0.0000       1.985713        54.0340 
  68   0.0000       2.036256        55.4094 
  69   0.0000       2.044350        55.6296 
  70   0.0000       2.058256        56.0080 
  71   0.0000       2.102720        57.2179 
  72   0.0000       2.170417        59.0600 
  73   0.0000       2.185904        59.4815 
  74   0.0000       2.279057        62.0163 
  75   0.0000       2.313562        62.9552 
  76   0.0000       2.420202        65.8571 
  77   0.0000       2.436785        66.3083 
  78   0.0000       2.512882        68.3790 
  79   0.0000       2.537155        69.0395 
  80   0.0000       2.564066        69.7718 
  81   0.0000       2.620624        71.3108 
  82   0.0000       2.726531        74.1927 
  83   0.0000       2.727065        74.2072 
  84   0.0000       2.859961        77.8235 
  85   0.0000       3.020941        82.2040 
  86   0.0000      13.581341       369.5671 
  87   0.0000      13.833761       376.4358 
  88   0.0000      13.944268       379.4428 
  89   0.0000      14.047088       382.2407 
  90   0.0000      25.666569       698.4228 

                    ********************************
                    * MULLIKEN POPULATION ANALYSIS *
                    ********************************

-----------------------
MULLIKEN ATOMIC CHARGES
-----------------------
   0 O :   -0.477494
   1 C :   -0.124475
   2 C :   -0.489521
   3 C :   -0.489521
   4 C :   -0.124475
   5 H :    0.207599
   6 H :    0.188663
   7 H :    0.231280
   8 H :    0.225201
   9 H :    0.231280
  10 H :    0.225201
  11 H :    0.188663
  12 H :    0.207599
Sum of atomic charges:    0.0000000

--------------------------------
MULLIKEN REDUCED ORBITAL CHARGES
--------------------------------
  0 O s       :     3.795523  s :     3.795523
      pz      :     1.600327  p :     4.652085
      px      :     1.192414
      py      :     1.859344
      dz2     :     0.005266  d :     0.029886
      dxz     :     0.013589
      dyz     :     0.003298
      dx2y2   :     0.004134
      dxy     :     0.003599
  1 C s       :     3.257897  s :     3.257897
      pz      :     0.853260  p :     2.800007
      px      :     0.844474
      py      :     1.102273
      dz2     :     0.013446  d :     0.066571
      dxz     :     0.017317
      dyz     :     0.006929
      dx2y2   :     0.011971
      dxy     :     0.016909
  2 C s       :     3.341805  s :     3.341805
      pz      :     1.009255  p :     3.105559
      px      :     0.966432
      py      :     1.129872
      dz2     :     0.009582  d :     0.042157
      dxz     :     0.009481
      dyz     :     0.005952
      dx2y2   :     0.011599
      dxy     :     0.005544
  3 C s       :     3.341805  s :     3.341805
      pz      :     1.009255  p :     3.105559
      px      :     0.966432
      py      :     1.129872
      dz2     :     0.009582  d :     0.042157
      dxz     :     0.009481
      dyz     :     0.005952
      dx2y2   :     0.011599
      dxy     :     0.005544
  4 C s       :     3.257897  s :     3.257897
      pz      :     0.853260  p :     2.800007
      px      :     0.844474
      py      :     1.102273
      dz2     :     0.013446  d :     0.066571
      dxz     :     0.017317
      dyz     :     0.006929
      dx2y2   :     0.011971
      dxy     :     0.016909
  5 H s       :     0.792401  s :     0.792401
  6 H s       :     0.811337  s :     0.811337
  7 H s       :     0.768720  s :     0.768720
  8 H s       :     0.774799  s :     0.774799
  9 H s       :     0.768720  s :     0.768720
 10 H s       :     0.774799  s :     0.774799
 11 H s       :     0.811337  s :     0.811337
 12 H s       :     0.792401  s :     0.792401


                     *******************************
                     * LOEWDIN POPULATION ANALYSIS *
                     *******************************

----------------------
LOEWDIN ATOMIC CHARGES
----------------------
   0 O :   -0.282453
   1 C :   -0.078302
   2 C :   -0.261083
   3 C :   -0.261083
   4 C :   -0.078302
   5 H :    0.115798
   6 H :    0.104446
   7 H :    0.132292
   8 H :    0.128076
   9 H :    0.132292
  10 H :    0.128076
  11 H :    0.104446
  12 H :    0.115798

-------------------------------
LOEWDIN REDUCED ORBITAL CHARGES
-------------------------------
  0 O s       :     3.476190  s :     3.476190
      pz      :     1.615843  p :     4.742178
      px      :     1.260779
      py      :     1.865557
      dz2     :     0.009356  d :     0.064085
      dxz     :     0.029510
      dyz     :     0.005022
      dx2y2   :     0.010406
      dxy     :     0.009791
  1 C s       :     2.916832  s :     2.916832
      pz      :     0.981111  p :     3.023066
      px      :     0.928902
      py      :     1.113052
      dz2     :     0.030474  d :     0.138404
      dxz     :     0.037897
      dyz     :     0.013589
      dx2y2   :     0.023159
      dxy     :     0.033286
  2 C s       :     2.922839  s :     2.922839
      pz      :     1.075227  p :     3.252245
      px      :     1.060853
      py      :     1.116164
      dz2     :     0.021271  d :     0.085999
      dxz     :     0.019166
      dyz     :     0.011420
      dx2y2   :     0.022874
      dxy     :     0.011269
  3 C s       :     2.922839  s :     2.922839
      pz      :     1.075227  p :     3.252245
      px      :     1.060853
      py      :     1.116164
      dz2     :     0.021271  d :     0.085999
      dxz     :     0.019166
      dyz     :     0.011420
      dx2y2   :     0.022874
      dxy     :     0.011269
  4 C s       :     2.916832  s :     2.916832
      pz      :     0.981111  p :     3.023066
      px      :     0.928902
      py      :     1.113052
      dz2     :     0.030474  d :     0.138404
      dxz     :     0.037897
      dyz     :     0.013589
      dx2y2   :     0.023159
      dxy     :     0.033286
  5 H s       :     0.884202  s :     0.884202
  6 H s       :     0.895554  s :     0.895554
  7 H s       :     0.867708  s :     0.867708
  8 H s       :     0.871924  s :     0.871924
  9 H s       :     0.867708  s :     0.867708
 10 H s       :     0.871924  s :     0.871924
 11 H s       :     0.895554  s :     0.895554
 12 H s       :     0.884202  s :     0.884202


                      *****************************
                      * MAYER POPULATION ANALYSIS *
                      *****************************

  NA   - Mulliken gross atomic population
  ZA   - Total nuclear charge
  QA   - Mulliken gross atomic charge
  VA   - Mayer's total valence
  BVA  - Mayer's bonded valence
  FA   - Mayer's free valence

  ATOM       NA         ZA         QA         VA         BVA        FA
  0 O      8.4775     8.0000    -0.4775     2.0059     2.0059     0.0000
  1 C      6.1245     6.0000    -0.1245     3.7281     3.7281     0.0000
  2 C      6.4895     6.0000    -0.4895     3.7199     3.7199     0.0000
  3 C      6.4895     6.0000    -0.4895     3.7199     3.7199     0.0000
  4 C      6.1245     6.0000    -0.1245     3.7281     3.7281    -0.0000
  5 H      0.7924     1.0000     0.2076     0.9098     0.9098     0.0000
  6 H      0.8113     1.0000     0.1887     0.9071     0.9071    -0.0000
  7 H      0.7687     1.0000     0.2313     0.9105     0.9105     0.0000
  8 H      0.7748     1.0000     0.2252     0.9041     0.9041     0.0000
  9 H      0.7687     1.0000     0.2313     0.9105     0.9105     0.0000
 10 H      0.7748     1.0000     0.2252     0.9041     0.9041     0.0000
 11 H      0.8113     1.0000     0.1887     0.9071     0.9071    -0.0000
 12 H      0.7924     1.0000     0.2076     0.9098     0.9098    -0.0000

  Mayer bond orders larger than 0.100000
B(  0-O ,  1-C ) :   0.9812 B(  0-O ,  4-C ) :   0.9812 B(  1-C ,  2-C ) :   0.9694 
B(  1-C ,  5-H ) :   0.9166 B(  1-C ,  6-H ) :   0.9103 B(  2-C ,  3-C ) :   0.9711 
B(  2-C ,  7-H ) :   0.9222 B(  2-C ,  8-H ) :   0.9181 B(  3-C ,  4-C ) :   0.9694 
B(  3-C ,  9-H ) :   0.9222 B(  3-C , 10-H ) :   0.9181 B(  4-C , 11-H ) :   0.9103 
B(  4-C , 12-H ) :   0.9166 

-------
TIMINGS
-------

Total SCF time: 0 days 0 hours 1 min 0 sec 

Total time                  ....      60.356 sec
Sum of individual times     ....      54.499 sec  ( 90.3%)

Fock matrix formation       ....      44.113 sec  ( 73.1%)
  Split-RI-J                ....       5.072 sec  ( 11.5% of F)
  Chain of spheres X        ....      14.990 sec  ( 34.0% of F)
  XC integration            ....      13.263 sec  ( 30.1% of F)
    Basis function eval.    ....       2.457 sec  ( 18.5% of XC)
    Density eval.           ....       1.449 sec  ( 10.9% of XC)
    XC-Functional eval.     ....       1.184 sec  (  8.9% of XC)
    XC-Potential eval.      ....       0.913 sec  (  6.9% of XC)
Diagonalization             ....       1.327 sec  (  2.2%)
Density matrix formation    ....       0.004 sec  (  0.0%)
Population analysis         ....       0.339 sec  (  0.6%)
Initial guess               ....       0.006 sec  (  0.0%)
Orbital Transformation      ....       0.000 sec  (  0.0%)
Orbital Orthonormalization  ....       0.000 sec  (  0.0%)
DIIS solution               ....       2.122 sec  (  3.5%)
SOSCF solution              ....       0.285 sec  (  0.5%)
Grid generation             ....       6.303 sec  ( 10.4%)

Maximum memory used throughout the entire SCF-calculation: 50.3 MB


-------------------------------------------------------------------------------
                          DFT DISPERSION CORRECTION                            
                                                                               
                              DFTD3 V3.1  Rev 1                                
                          USING Becke-Johnson damping                          
-------------------------------------------------------------------------------
The PBEh-3c composite method is recognized
Using three-body term ABC
Active option DFTDOPT                   ...         4   

molecular C6(AA) [au] = 1172.816720 


            DFT-D V3
 parameters
 s6 scaling factor         :     1.0000 
 a1 scaling factor         :     0.4860 
 s8 scaling factor         :     0.0000 
 a2 scaling factor         :     4.5000 
 Damping factor alpha9(ATM):    16.0000 
 ad hoc parameters k1-k3   :    16.0000     1.3333    -4.0000 

 Edisp/kcal,au: -3.260842917293  -0.005196483407 
 E6   /kcal   :  -3.272891821 
 E8   /kcal   :  -0.000000000 
 E6(ABC)      :   0.012048904 
 % E8         :   0.000000000 
 % E6(ABC)    :  -0.369502731 

-------------------------   ----------------
Dispersion correction           -0.005196483
-------------------------   ----------------

------------------   -----------------
gCP correction             0.030755642
------------------   -----------------

-------------------------   --------------------
FINAL SINGLE POINT ENERGY      -231.944073960313
-------------------------   --------------------


                            ***************************************
                            *     ORCA property calculations      *
                            ***************************************

                                    ---------------------
                                    Active property flags
                                    ---------------------
   (+) Dipole Moment


------------------------------------------------------------------------------
                       ORCA ELECTRIC PROPERTIES CALCULATION
------------------------------------------------------------------------------

Dipole Moment Calculation                       ... on
Quadrupole Moment Calculation                   ... off
Polarizability Calculation                      ... off
GBWName                                         ... pbeh-3c.gbw
Electron density                                ... pbeh-3c.scfp
The origin for moment calculation is the CENTER OF MASS  = (-0.000000, -0.000000  0.534083)

-------------
DIPOLE MOMENT
-------------
                                X             Y             Z
Electronic contribution:      0.00000       0.00000       2.59496
Nuclear contribution   :     -0.00000       0.00000      -3.33403
                        -----------------------------------------
Total Dipole Moment    :      0.00000       0.00000      -0.73907
                        -----------------------------------------
Magnitude (a.u.)       :      0.73907
Magnitude (Debye)      :      1.87856



--------------------
Rotational spectrum 
--------------------
 
Rotational constants in cm-1:     0.235778     0.232987     0.132965 
Rotational constants in MHz :  7068.452789  6984.762439  3986.189310 

 Dipole components along the rotational axes: 
x,y,z [a.u.] :    -0.739069    -0.000000    -0.000000 
x,y,z [Debye]:    -1.878564    -0.000000    -0.000000 

 

Timings for individual modules:

Sum of individual times         ...       63.718 sec (=   1.062 min)
GTO integral calculation        ...        2.693 sec (=   0.045 min)   4.2 %
SCF iterations                  ...       61.025 sec (=   1.017 min)  95.8 %
                             ****ORCA TERMINATED NORMALLY****
TOTAL RUN TIME: 0 days 0 hours 1 minutes 5 seconds 506 msec
