
                                 *****************
                                 * O   R   C   A *
                                 *****************

                                            #,                                       
                                            ###                                      
                                            ####                                     
                                            #####                                    
                                            ######                                   
                                           ########,                                 
                                     ,,################,,,,,                         
                               ,,#################################,,                 
                          ,,##########################################,,             
                       ,#########################################, ''#####,          
                    ,#############################################,,   '####,        
                  ,##################################################,,,,####,       
                ,###########''''           ''''###############################       
              ,#####''   ,,,,##########,,,,          '''####'''          '####       
            ,##' ,,,,###########################,,,                        '##       
           ' ,,###''''                  '''############,,,                           
         ,,##''                                '''############,,,,        ,,,,,,###''
      ,#''                                            '''#######################'''  
     '                                                          ''''####''''         
             ,#######,   #######,   ,#######,      ##                                
            ,#'     '#,  ##    ##  ,#'     '#,    #''#        ######   ,####,        
            ##       ##  ##   ,#'  ##            #'  '#       #        #'  '#        
            ##       ##  #######   ##           ,######,      #####,   #    #        
            '#,     ,#'  ##    ##  '#,     ,#' ,#      #,         ##   #,  ,#        
             '#######'   ##     ##  '#######'  #'      '#     #####' # '####'        



                  #######################################################
                  #                        -***-                        #
                  #          Department of theory and spectroscopy      #
                  #    Directorship and core code : Frank Neese         #
                  #        Max Planck Institute fuer Kohlenforschung    #
                  #                Kaiser Wilhelm Platz 1               #
                  #                 D-45470 Muelheim/Ruhr               #
                  #                      Germany                        #
                  #                                                     #
                  #                  All rights reserved                #
                  #                        -***-                        #
                  #######################################################


                         Program Version 5.0.3 -  RELEASE  -


 With contributions from (in alphabetic order):
   Daniel Aravena         : Magnetic Suceptibility
   Michael Atanasov       : Ab Initio Ligand Field Theory (pilot matlab implementation)
   Alexander A. Auer      : GIAO ZORA, VPT2 properties, NMR spectrum
   Ute Becker             : Parallelization
   Giovanni Bistoni       : ED, misc. LED, open-shell LED, HFLD
   Martin Brehm           : Molecular dynamics
   Dmytro Bykov           : SCF Hessian
   Vijay G. Chilkuri      : MRCI spin determinant printing, contributions to CSF-ICE
   Dipayan Datta          : RHF DLPNO-CCSD density
   Achintya Kumar Dutta   : EOM-CC, STEOM-CC
   Dmitry Ganyushin       : Spin-Orbit,Spin-Spin,Magnetic field MRCI
   Miquel Garcia          : C-PCM and meta-GGA Hessian, CC/C-PCM, Gaussian charge scheme
   Yang Guo               : DLPNO-NEVPT2, F12-NEVPT2, CIM, IAO-localization
   Andreas Hansen         : Spin unrestricted coupled pair/coupled cluster methods
   Benjamin Helmich-Paris : MC-RPA, TRAH-SCF, COSX integrals
   Lee Huntington         : MR-EOM, pCC
   Robert Izsak           : Overlap fitted RIJCOSX, COSX-SCS-MP3, EOM
   Marcus Kettner         : VPT2
   Christian Kollmar      : KDIIS, OOCD, Brueckner-CCSD(T), CCSD density, CASPT2, CASPT2-K
   Simone Kossmann        : Meta GGA functionals, TD-DFT gradient, OOMP2, MP2 Hessian
   Martin Krupicka        : Initial AUTO-CI
   Lucas Lang             : DCDCAS
   Marvin Lechner         : AUTO-CI (C++ implementation), FIC-MRCC
   Dagmar Lenk            : GEPOL surface, SMD
   Dimitrios Liakos       : Extrapolation schemes; Compound Job, initial MDCI parallelization
   Dimitrios Manganas     : Further ROCIS development; embedding schemes
   Dimitrios Pantazis     : SARC Basis sets
   Anastasios Papadopoulos: AUTO-CI, single reference methods and gradients
   Taras Petrenko         : DFT Hessian,TD-DFT gradient, ASA, ECA, R-Raman, ABS, FL, XAS/XES, NRVS
   Peter Pinski           : DLPNO-MP2, DLPNO-MP2 Gradient
   Christoph Reimann      : Effective Core Potentials
   Marius Retegan         : Local ZFS, SOC
   Christoph Riplinger    : Optimizer, TS searches, QM/MM, DLPNO-CCSD(T), (RO)-DLPNO pert. Triples
   Tobias Risthaus        : Range-separated hybrids, TD-DFT gradient, RPA, STAB
   Michael Roemelt        : Original ROCIS implementation
   Masaaki Saitow         : Open-shell DLPNO-CCSD energy and density
   Barbara Sandhoefer     : DKH picture change effects
   Avijit Sen             : IP-ROCIS
   Kantharuban Sivalingam : CASSCF convergence, NEVPT2, FIC-MRCI
   Bernardo de Souza      : ESD, SOC TD-DFT
   Georgi Stoychev        : AutoAux, RI-MP2 NMR, DLPNO-MP2 response
   Willem Van den Heuvel  : Paramagnetic NMR
   Boris Wezisla          : Elementary symmetry handling
   Frank Wennmohs         : Technical directorship


 We gratefully acknowledge several colleagues who have allowed us to
 interface, adapt or use parts of their codes:
   Stefan Grimme, W. Hujo, H. Kruse, P. Pracht,  : VdW corrections, initial TS optimization,
                  C. Bannwarth, S. Ehlert          DFT functionals, gCP, sTDA/sTD-DF
   Ed Valeev, F. Pavosevic, A. Kumar             : LibInt (2-el integral package), F12 methods
   Garnet Chan, S. Sharma, J. Yang, R. Olivares  : DMRG
   Ulf Ekstrom                                   : XCFun DFT Library
   Mihaly Kallay                                 : mrcc  (arbitrary order and MRCC methods)
   Jiri Pittner, Ondrej Demel                    : Mk-CCSD
   Frank Weinhold                                : gennbo (NPA and NBO analysis)
   Christopher J. Cramer and Donald G. Truhlar   : smd solvation model
   Lars Goerigk                                  : TD-DFT with DH, B97 family of functionals
   V. Asgeirsson, H. Jonsson                     : NEB implementation
   FAccTs GmbH                                   : IRC, NEB, NEB-TS, DLPNO-Multilevel, CI-OPT
                                                   MM, QMMM, 2- and 3-layer-ONIOM, Crystal-QMMM,
                                                   LR-CPCM, SF, NACMEs, symmetry and pop. for TD-DFT,
                                                   nearIR, NL-DFT gradient (VV10), updates on ESD,
                                                   ML-optimized integration grids
   S Lehtola, MJT Oliveira, MAL Marques          : LibXC Library
   Liviu Ungur et al                             : ANISO software


 Your calculation uses the libint2 library for the computation of 2-el integrals
 For citations please refer to: http://libint.valeyev.net

 Your ORCA version has been built with support for libXC version: 5.1.0
 For citations please refer to: https://tddft.org/programs/libxc/

 This ORCA versions uses:
   CBLAS   interface :  Fast vector & matrix operations
   LAPACKE interface :  Fast linear algebra routines
   SCALAPACK package :  Parallel linear algebra routines
   Shared memory     :  Shared parallel matrices
   BLAS/LAPACK       :  OpenBLAS 0.3.15  USE64BITINT DYNAMIC_ARCH NO_AFFINITY Haswell SINGLE_THREADED
        Core in use  :  Haswell
   Copyright (c) 2011-2014, The OpenBLAS Project




***************************************
The coordinates will be read from file: 22_benCl-Nm3B.xyz
***************************************


Your calculation utilizes the geometrical counterpoise correction gCP
Please cite in your paper:
H.Kruse, S. Grimme J.Chem.Phys., 136, (2012), 154101 
   

Your calculation utilizes the atom-pairwise dispersion correction
with the Becke-Johnson damping scheme (D3BJ)
Cite in your paper:
S.Grimme, S.Ehrlich, L.Goerigk, J Comput Chem, (2011), 32, 1456–1465 
S.Grimme, J.Antony, S.Ehrlich and H.Krieg, J.Chem.Phys., 132, (2010), 154104 
   

Your calculation employs the composite approach PBEh-3c.
Please cite in your paper:
S. Grimme, J. G. Brandenburg, C. Bannwarth, A. Hansen J.Chem.Phys., 143, (2015), 054107 
   

================================================================================

----- Orbital basis set information -----
Your calculation utilizes the basis: def2-mSVP

----- AuxJ basis set information -----
Your calculation utilizes the auxiliary basis: def2/J
   F. Weigend, Phys. Chem. Chem. Phys. 8, 1057 (2006).

================================================================================
                                        WARNINGS
                       Please study these warnings very carefully!
================================================================================


INFO   : the flag for use of the SHARK integral package has been found!

================================================================================
                                       INPUT FILE
================================================================================
NAME = pbeh-3c.inp
|  1> ! PBEh-3c def2/J TightSCF DefGrid3
|  2> 
|  3> %maxcore 60000
|  4> 
|  5> %pal
|  6> nprocs 4
|  7> end
|  8> 
|  9> *xyzfile 0 1 22_benCl-Nm3B.xyz
| 10> 
| 11>                          ****END OF INPUT****
================================================================================

                       ****************************
                       * Single Point Calculation *
                       ****************************

---------------------------------
CARTESIAN COORDINATES (ANGSTROEM)
---------------------------------
  N     -4.403628    0.003356    3.894350
  C     -5.231718   -1.074214    3.388785
  C     -4.114028   -0.203131    5.300015
  C     -5.065000    1.279020    3.699968
  H     -5.027241   -0.220060    5.916981
  H     -3.593998   -1.150521    5.432396
  H     -3.470363    0.596298    5.663510
  H     -6.026503    1.337442    4.235674
  H     -4.424188    2.083133    4.058008
  H     -5.254103    1.436697    2.639381
  H     -6.201676   -1.135411    3.908711
  H     -5.421511   -0.924313    2.327182
  H     -4.715156   -2.024330    3.514793

----------------------------
CARTESIAN COORDINATES (A.U.)
----------------------------
  NO LB      ZA    FRAG     MASS         X           Y           Z
   0 N     7.0000    0    14.007   -8.321651    0.006342    7.359254
   1 C     6.0000    0    12.011   -9.886514   -2.029970    6.403876
   2 C     6.0000    0    12.011   -7.774387   -0.383863   10.015576
   3 C     6.0000    0    12.011   -9.571463    2.416998    6.991926
   4 H     1.0000    0     1.008   -9.500109   -0.415853   11.181474
   5 H     1.0000    0     1.008   -6.791672   -2.174169   10.265740
   6 H     1.0000    0     1.008   -6.558036    1.126840   10.702482
   7 H     1.0000    0     1.008  -11.388440    2.527399    8.004264
   8 H     1.0000    0     1.008   -8.360504    3.936550    7.668525
   9 H     1.0000    0     1.008   -9.928815    2.714963    4.987707
  10 H     1.0000    0     1.008  -11.719469   -2.145617    7.386394
  11 H     1.0000    0     1.008  -10.245171   -1.746699    4.397737
  12 H     1.0000    0     1.008   -8.910354   -3.825430    6.641996

--------------------------------
INTERNAL COORDINATES (ANGSTROEM)
--------------------------------
 N      0   0   0     0.000000000000     0.00000000     0.00000000
 C      1   0   0     1.449994777369     0.00000000     0.00000000
 C      1   2   0     1.449965297743   110.25794109     0.00000000
 C      1   2   3     1.450005917916   110.27783154   237.99873035
 H      3   1   2     1.102221162431   112.29368778   298.99561116
 H      3   1   2     1.088807957491   109.70477931    59.50320474
 H      3   1   2     1.088816113833   109.70375380   178.49610297
 H      4   1   2     1.102217175543   112.29420606    60.99643592
 H      4   1   2     1.088773996130   109.70707894   181.51792786
 H      4   1   2     1.088791291021   109.70685339   300.49023289
 H      2   1   3     1.102219311973   112.29417664    61.00212518
 H      2   1   3     1.088803400294   109.70595585   181.50154227
 H      2   1   3     1.088777082035   109.70666782   300.47958686

---------------------------
INTERNAL COORDINATES (A.U.)
---------------------------
 N      0   0   0     0.000000000000     0.00000000     0.00000000
 C      1   0   0     2.740093024843     0.00000000     0.00000000
 C      1   2   0     2.740037316424   110.25794109     0.00000000
 C      1   2   3     2.740114077427   110.27783154   237.99873035
 H      3   1   2     2.082896136006   112.29368778   298.99561116
 H      3   1   2     2.057548852092   109.70477931    59.50320474
 H      3   1   2     2.057564265345   109.70375380   178.49610297
 H      4   1   2     2.082888601880   112.29420606    60.99643592
 H      4   1   2     2.057484674421   109.70707894   181.51792786
 H      4   1   2     2.057517357029   109.70685339   300.49023289
 H      2   1   3     2.082892639147   112.29417664    61.00212518
 H      2   1   3     2.057540240238   109.70595585   181.50154227
 H      2   1   3     2.057490505936   109.70666782   300.47958686

---------------------
BASIS SET INFORMATION
---------------------
There are 3 groups of distinct atoms

 Group   1 Type N   : 8s4p1d contracted to 4s2p1d pattern {5111/31/1}
 Group   2 Type C   : 8s4p1d contracted to 4s2p1d pattern {5111/31/1}
 Group   3 Type H   : 4s contracted to 2s pattern {31}

Atom   0N    basis set group =>   1
Atom   1C    basis set group =>   2
Atom   2C    basis set group =>   2
Atom   3C    basis set group =>   2
Atom   4H    basis set group =>   3
Atom   5H    basis set group =>   3
Atom   6H    basis set group =>   3
Atom   7H    basis set group =>   3
Atom   8H    basis set group =>   3
Atom   9H    basis set group =>   3
Atom  10H    basis set group =>   3
Atom  11H    basis set group =>   3
Atom  12H    basis set group =>   3
---------------------------------
AUXILIARY/J BASIS SET INFORMATION
---------------------------------
There are 3 groups of distinct atoms

 Group   1 Type N   : 12s5p4d2f1g contracted to 6s4p3d1f1g pattern {711111/2111/211/2/1}
 Group   2 Type C   : 12s5p4d2f1g contracted to 6s4p3d1f1g pattern {711111/2111/211/2/1}
 Group   3 Type H   : 5s2p1d contracted to 3s1p1d pattern {311/2/1}

Atom   0N    basis set group =>   1
Atom   1C    basis set group =>   2
Atom   2C    basis set group =>   2
Atom   3C    basis set group =>   2
Atom   4H    basis set group =>   3
Atom   5H    basis set group =>   3
Atom   6H    basis set group =>   3
Atom   7H    basis set group =>   3
Atom   8H    basis set group =>   3
Atom   9H    basis set group =>   3
Atom  10H    basis set group =>   3
Atom  11H    basis set group =>   3
Atom  12H    basis set group =>   3


           ************************************************************
           *        Program running with 4 parallel MPI-processes     *
           *              working on a common directory               *
           ************************************************************
------------------------------------------------------------------------------
                           ORCA GTO INTEGRAL CALCULATION
                           -- RI-GTO INTEGRALS CHOSEN --
------------------------------------------------------------------------------
------------------------------------------------------------------------------
                   ___                                                        
                  /   \      - P O W E R E D   B Y -                         
                 /     \                                                     
                 |  |  |   _    _      __       _____    __    __             
                 |  |  |  | |  | |    /  \     |  _  \  |  |  /  |          
                  \  \/   | |  | |   /    \    | | | |  |  | /  /          
                 / \  \   | |__| |  /  /\  \   | |_| |  |  |/  /          
                |  |  |   |  __  | /  /__\  \  |    /   |      \           
                |  |  |   | |  | | |   __   |  |    \   |  |\   \          
                \     /   | |  | | |  |  |  |  | |\  \  |  | \   \       
                 \___/    |_|  |_| |__|  |__|  |_| \__\ |__|  \__/        
                                                                              
                      - O R C A' S   B I G   F R I E N D -                    
                                      &                                       
                       - I N T E G R A L  F E E D E R -                       
                                                                              
 v1 FN, 2020, v2 2021                                                         
------------------------------------------------------------------------------


Reading SHARK input file pbeh-3c.SHARKINP.tmp ... ok
----------------------
SHARK INTEGRAL PACKAGE
----------------------

Number of atoms                             ...     13
Number of basis functions                   ...     78
Number of shells                            ...     46
Maximum angular momentum                    ...      2
Integral batch strategy                     ... SHARK/LIBINT Hybrid
RI-J (if used) integral strategy            ... SPLIT-RIJ (Revised 2003 algorithm where possible)
Printlevel                                  ...      1
Contraction scheme used                     ... SEGMENTED contraction
Coulomb Range Separation                    ... NOT USED
Exchange Range Separation                   ... NOT USED
Finite Nucleus Model                        ... NOT USED
Auxiliary Coulomb fitting basis             ... AVAILABLE
   # of basis functions in Aux-J            ...    295
   # of shells in Aux-J                     ...    105
   Maximum angular momentum in Aux-J        ...      4
Auxiliary J/K fitting basis                 ... NOT available
Auxiliary Correlation fitting basis         ... NOT available
Auxiliary 'external' fitting basis          ... NOT available
Integral threshold                          ...     2.500000e-11
Primitive cut-off                           ...     2.500000e-12
Primitive pair pre-selection threshold      ...     2.500000e-12

Calculating pre-screening integrals         ... done (  0.1 sec) Dimension = 46
Organizing shell pair data                  ... done (  0.2 sec)
Shell pair information
Total number of shell pairs                 ...      1081
Shell pairs after pre-screening             ...      1066
Total number of primitive shell pairs       ...      3995
Primitive shell pairs kept                  ...      3053
          la=0 lb=0:    580 shell pairs
          la=1 lb=0:    272 shell pairs
          la=1 lb=1:     36 shell pairs
          la=2 lb=0:    136 shell pairs
          la=2 lb=1:     32 shell pairs
          la=2 lb=2:     10 shell pairs

Calculating one electron integrals          ... done (  0.0 sec)
Calculating RI/J V-Matrix + Cholesky decomp.... done (  0.5 sec)
Calculating Nuclear repulsion               ... done (  0.1 sec) ENN=    139.292649663227 Eh

SHARK setup successfully completed in   1.9 seconds

Maximum memory used throughout the entire GTOINT-calculation: 9.8 MB


           ************************************************************
           *        Program running with 4 parallel MPI-processes     *
           *              working on a common directory               *
           ************************************************************
-------------------------------------------------------------------------------
                                 ORCA SCF
-------------------------------------------------------------------------------

------------
SCF SETTINGS
------------
Hamiltonian:
 Density Functional     Method          .... DFT(GTOs)
 Exchange Functional    Exchange        .... PBE
   PBE kappa parameter   XKappa         ....  1.024500
   PBE mue parameter    XMuePBE         ....  0.123457
 Correlation Functional Correlation     .... PBE
   PBE beta parameter  CBetaPBE         ....  0.030000
 LDA part of GGA corr.  LDAOpt          .... PW91-LDA
 Gradients option       PostSCFGGA      .... off
 Hybrid DFT is turned on
   Fraction HF Exchange ScalHFX         ....  0.420000
   Scaling of DF-GGA-X  ScalDFX         ....  0.580000
   Scaling of DF-GGA-C  ScalDFC         ....  1.000000
   Scaling of DF-LDA-C  ScalLDAC        ....  1.000000
   Perturbative correction              ....  0.000000
   Density functional embedding theory  .... OFF
 RI-approximation to the Coulomb term is turned on
   Number of AuxJ basis functions       .... 295
   RIJ-ON(X) (HFX calculated with O(N)) .... on
   Number of AuxJ basis functions       .... 295
   RIJ-COSX (HFX calculated with COS-X)).... on


General Settings:
 Integral files         IntName         .... pbeh-3c
 Hartree-Fock type      HFTyp           .... RHF
 Total Charge           Charge          ....    0
 Multiplicity           Mult            ....    1
 Number of Electrons    NEL             ....   34
 Basis Dimension        Dim             ....   78
 Nuclear Repulsion      ENuc            ....    139.2926496632 Eh

Convergence Acceleration:
 DIIS                   CNVDIIS         .... on
   Start iteration      DIISMaxIt       ....    12
   Startup error        DIISStart       ....  0.200000
   # of expansion vecs  DIISMaxEq       ....     5
   Bias factor          DIISBfac        ....   1.050
   Max. coefficient     DIISMaxC        ....  10.000
 Trust-Rad. Augm. Hess. CNVTRAH         .... auto
   Auto Start mean grad. ratio tolernc. ....  1.125000
   Auto Start start iteration           ....    20
   Auto Start num. interpolation iter.  ....    10
   Max. Number of Micro iterations      ....    16
   Max. Number of Macro iterations      .... Maxiter - #DIIS iter
   Number of Davidson start vectors     ....     2
   Converg. threshold I  (grad. norm)   ....   1.000e-05
   Converg. threshold II (energy diff.) ....   1.000e-08
   Grad. Scal. Fac. for Micro threshold ....   0.100
   Minimum threshold for Micro iter.    ....   0.010
   NR start threshold (gradient norm)   ....   0.001
   Initial trust radius                 ....   0.400
   Minimum AH scaling param. (alpha)    ....   1.000
   Maximum AH scaling param. (alpha)    .... 1000.000
   Orbital update algorithm             .... Taylor
   White noise on init. David. guess    .... on
   Maximum white noise                  ....   0.010
   Quad. conv. algorithm                .... NR
   COSX micro iterations for RIJONX calc.... off
 SOSCF                  CNVSOSCF        .... on
   Start iteration      SOSCFMaxIt      ....   150
   Startup grad/error   SOSCFStart      ....  0.003300
 Level Shifting         CNVShift        .... on
   Level shift para.    LevelShift      ....    0.2500
   Turn off err/grad.   ShiftErr        ....    0.0010
 Zerner damping         CNVZerner       .... off
 Static damping         CNVDamp         .... on
   Fraction old density DampFac         ....    0.7000
   Max. Damping (<1)    DampMax         ....    0.9800
   Min. Damping (>=0)   DampMin         ....    0.0000
   Turn off err/grad.   DampErr         ....    0.1000
 Fernandez-Rico         CNVRico         .... off

SCF Procedure:
 Maximum # iterations   MaxIter         ....   125
 SCF integral mode      SCFMode         .... Direct
   Integral package                     .... SHARK and LIBINT hybrid scheme
 Reset frequency        DirectResetFreq ....    20
 Integral Threshold     Thresh          ....  2.500e-11 Eh
 Primitive CutOff       TCut            ....  2.500e-12 Eh

Convergence Tolerance:
 Convergence Check Mode ConvCheckMode   .... Total+1el-Energy
 Convergence forced     ConvForced      .... 0
 Energy Change          TolE            ....  1.000e-08 Eh
 1-El. energy change                    ....  1.000e-05 Eh
 Orbital Gradient       TolG            ....  1.000e-05
 Orbital Rotation angle TolX            ....  1.000e-05
 DIIS Error             TolErr          ....  5.000e-07


Diagonalization of the overlap matrix:
Smallest eigenvalue                        ... 1.222e-02
Time for diagonalization                   ...    0.002 sec
Threshold for overlap eigenvalues          ... 1.000e-08
Number of eigenvalues below threshold      ... 0
Time for construction of square roots      ...    0.244 sec
Total time needed                          ...    0.252 sec

--------------------------------
INITIAL GUESS: MINIMAL BASIS EHT
--------------------------------
The minimal basis has 29 functions
EHT matrix was diagonalized
Basis set overlap was calculated now projecting the orbitals
Using GuessMode=FMatrix for the initial guess
C*T matrix was formed
Effective Fockian was calculated
Effective Fockian was diagonalized
Initial density was built
                      ------------------
                      INITIAL GUESS DONE
                      ------------------
-------------------
DFT GRID GENERATION
-------------------

General Integration Accuracy     IntAcc      ... 4.959
Radial Grid Type                 RadialGrid  ... OptM3 with GC (2021)
Angular Grid (max. ang.)         AngularGrid ... 6 (Lebedev-590)
Angular grid pruning method      GridPruning ... 4 (adaptive)
Weight generation scheme         WeightScheme... Becke
Basis function cutoff            BFCut       ... 1.0000e-11
Integration weight cutoff        WCut        ... 1.0000e-14
Angular grids for H and He will be reduced by one unit
Partially contracted basis set               ... off
Rotationally invariant grid construction     ... off

Total number of grid points                  ...   136231
Total number of batches                      ...     2134
Average number of points per batch           ...       63
Average number of grid points per atom       ...    10479
Time for grid setup =    2.335 sec

--------------------
COSX GRID GENERATION
--------------------

GRIDX 1
-------
General Integration Accuracy     IntAcc      ... 4.020
Radial Grid Type                 RadialGrid  ... OptM3 with GC (2021)
Angular Grid (max. ang.)         AngularGrid ... 2 (Lebedev-110)
Angular grid pruning method      GridPruning ... 4 (adaptive)
Weight generation scheme         WeightScheme... Becke
Basis function cutoff            BFCut       ... 1.0000e-11
Integration weight cutoff        WCut        ... 1.0000e-14
Angular grids for H and He will be reduced by one unit
Partially contracted basis set               ... on
Rotationally invariant grid construction     ... off

Total number of grid points                  ...    14195
Total number of batches                      ...      228
Average number of points per batch           ...       62
Average number of grid points per atom       ...     1092
UseSFitting                                  ... on

GRIDX 2
-------
General Integration Accuracy     IntAcc      ... 4.338
Radial Grid Type                 RadialGrid  ... OptM3 with GC (2021)
Angular Grid (max. ang.)         AngularGrid ... 3 (Lebedev-194)
Angular grid pruning method      GridPruning ... 4 (adaptive)
Weight generation scheme         WeightScheme... Becke
Basis function cutoff            BFCut       ... 1.0000e-11
Integration weight cutoff        WCut        ... 1.0000e-14
Angular grids for H and He will be reduced by one unit
Partially contracted basis set               ... on
Rotationally invariant grid construction     ... off

Total number of grid points                  ...    30984
Total number of batches                      ...      490
Average number of points per batch           ...       63
Average number of grid points per atom       ...     2383
UseSFitting                                  ... on

GRIDX 3
-------
General Integration Accuracy     IntAcc      ... 4.871
Radial Grid Type                 RadialGrid  ... OptM3 with GC (2021)
Angular Grid (max. ang.)         AngularGrid ... 4 (Lebedev-302)
Angular grid pruning method      GridPruning ... 4 (adaptive)
Weight generation scheme         WeightScheme... Becke
Basis function cutoff            BFCut       ... 1.0000e-11
Integration weight cutoff        WCut        ... 1.0000e-14
Angular grids for H and He will be reduced by one unit
Partially contracted basis set               ... on
Rotationally invariant grid construction     ... off

Total number of grid points                  ...    62457
Total number of batches                      ...      984
Average number of points per batch           ...       63
Average number of grid points per atom       ...     4804
UseSFitting                                  ... on

Time for X-Grid setup             =    3.259 sec

--------------
SCF ITERATIONS
--------------
ITER       Energy         Delta-E        Max-DP      RMS-DP      [F,P]     Damp
               ***  Starting incremental Fock matrix formation  ***
  0   -173.6993697618   0.000000000000 0.12400945  0.00447564  0.3872751 0.7000
  1   -173.8323798106  -0.133010048850 0.07700705  0.00314144  0.2783674 0.7000
                               ***Turning on DIIS***
  2   -173.9142783031  -0.081898492464 0.04241013  0.00202866  0.1990675 0.7000
  3   -173.9702063104  -0.055928007266 0.02484865  0.00136202  0.1415794 0.7000
  4   -174.0096757969  -0.039469486490 0.05768450  0.00338784  0.0988726 0.0000
  5   -174.1040916116  -0.094415814756 0.00821527  0.00030826  0.0063723 0.0000
                      *** Initiating the SOSCF procedure ***
                           *** Shutting down DIIS ***
                      *** Re-Reading the Fockian *** 
                      *** Removing any level shift *** 
ITER      Energy       Delta-E        Grad      Rot      Max-DP    RMS-DP
  6   -174.10419508  -0.0001034639  0.000756  0.000756  0.002500  0.000112
               *** Restarting incremental Fock matrix formation ***
  7   -174.10421793  -0.0000228579  0.000508  0.001058  0.003076  0.000098
  8   -174.10422219  -0.0000042544  0.000172  0.000620  0.001470  0.000051
  9   -174.10422277  -0.0000005808  0.000105  0.000219  0.000479  0.000017
 10   -174.10422292  -0.0000001465  0.000022  0.000028  0.000085  0.000003
 11   -174.10422292  -0.0000000017  0.000014  0.000020  0.000059  0.000002
                 **** Energy Check signals convergence ****
              ***Rediagonalizing the Fockian in SOSCF/NRSCF***

               *****************************************************
               *                     SUCCESS                       *
               *           SCF CONVERGED AFTER  12 CYCLES          *
               *****************************************************

Old exchange energy                            =    -10.651882541 Eh
New exchange energy                            =    -10.651882798 Eh
Exchange energy change after final integration =     -0.000000257 Eh
Total energy after final integration           =   -174.104223182 Eh
Final COS-X integration done in                =     1.861 sec

----------------
TOTAL SCF ENERGY
----------------

Total Energy       :         -174.10422318 Eh           -4737.61677 eV

Components:
Nuclear Repulsion  :          139.29264966 Eh            3790.34569 eV
Electronic Energy  :         -313.39687284 Eh           -8527.96246 eV
One Electron Energy:         -509.47072376 Eh          -13863.40320 eV
Two Electron Energy:          196.07385092 Eh            5335.44073 eV
Max COSX asymmetry :            0.00000083 Eh               0.00002 eV

Virial components:
Potential Energy   :         -346.82904371 Eh           -9437.69808 eV
Kinetic Energy     :          172.72482053 Eh            4700.08131 eV
Virial Ratio       :            2.00798613


DFT components:
N(Alpha)           :       17.000002157790 electrons
N(Beta)            :       17.000002157790 electrons
N(Total)           :       34.000004315580 electrons
E(X)               :      -14.123906967176 Eh       
E(C)               :       -1.440552169661 Eh       
E(XC)              :      -15.564459136838 Eh       
DFET-embed. en.    :        0.000000000000 Eh       

---------------
SCF CONVERGENCE
---------------

  Last Energy change         ...   -7.9220e-09  Tolerance :   1.0000e-08
  Last MAX-Density change    ...    1.6653e-15  Tolerance :   1.0000e-07
  Last RMS-Density change    ...    5.8920e-17  Tolerance :   5.0000e-09
  Last Orbital Gradient      ...    7.1048e-07  Tolerance :   1.0000e-05
  Last Orbital Rotation      ...    8.4327e-07  Tolerance :   1.0000e-05

             **** THE GBW FILE WAS UPDATED (pbeh-3c.gbw) ****
             **** DENSITY pbeh-3c.scfp WAS UPDATED ****
             **** ENERGY FILE WAS UPDATED (pbeh-3c.en.tmp) ****
             **** THE GBW FILE WAS UPDATED (pbeh-3c.gbw) ****
             **** DENSITY pbeh-3c.scfp WAS UPDATED ****
----------------
ORBITAL ENERGIES
----------------

  NO   OCC          E(Eh)            E(eV) 
   0   2.0000     -14.623084      -397.9143 
   1   2.0000     -10.446488      -284.2634 
   2   2.0000     -10.446486      -284.2633 
   3   2.0000     -10.446416      -284.2614 
   4   2.0000      -1.019130       -27.7319 
   5   2.0000      -0.783256       -21.3135 
   6   2.0000      -0.783228       -21.3127 
   7   2.0000      -0.660161       -17.9639 
   8   2.0000      -0.527167       -14.3449 
   9   2.0000      -0.522902       -14.2289 
  10   2.0000      -0.522872       -14.2281 
  11   2.0000      -0.444029       -12.0827 
  12   2.0000      -0.444010       -12.0821 
  13   2.0000      -0.418109       -11.3773 
  14   2.0000      -0.406763       -11.0686 
  15   2.0000      -0.406712       -11.0672 
  16   2.0000      -0.260665        -7.0931 
  17   0.0000       0.125791         3.4230 
  18   0.0000       0.197052         5.3621 
  19   0.0000       0.197062         5.3623 
  20   0.0000       0.206661         5.6235 
  21   0.0000       0.212684         5.7874 
  22   0.0000       0.212703         5.7879 
  23   0.0000       0.218863         5.9556 
  24   0.0000       0.246073         6.6960 
  25   0.0000       0.246077         6.6961 
  26   0.0000       0.276777         7.5315 
  27   0.0000       0.276779         7.5315 
  28   0.0000       0.288334         7.8460 
  29   0.0000       0.521250        14.1839 
  30   0.0000       0.530395        14.4328 
  31   0.0000       0.530411        14.4332 
  32   0.0000       0.551983        15.0202 
  33   0.0000       0.552030        15.0215 
  34   0.0000       0.618734        16.8366 
  35   0.0000       0.653093        17.7716 
  36   0.0000       0.653130        17.7726 
  37   0.0000       0.762314        20.7436 
  38   0.0000       0.891663        24.2634 
  39   0.0000       0.941591        25.6220 
  40   0.0000       0.942424        25.6446 
  41   0.0000       0.942428        25.6448 
  42   0.0000       1.028945        27.9990 
  43   0.0000       1.036792        28.2126 
  44   0.0000       1.038018        28.2459 
  45   0.0000       1.038021        28.2460 
  46   0.0000       1.084002        29.4972 
  47   0.0000       1.084004        29.4972 
  48   0.0000       1.104385        30.0518 
  49   0.0000       1.105880        30.0925 
  50   0.0000       1.105938        30.0941 
  51   0.0000       1.444317        39.3019 
  52   0.0000       1.444401        39.3042 
  53   0.0000       1.493212        40.6324 
  54   0.0000       1.497385        40.7459 
  55   0.0000       1.497427        40.7471 
  56   0.0000       1.835653        49.9506 
  57   0.0000       1.970779        53.6276 
  58   0.0000       1.970853        53.6296 
  59   0.0000       2.016348        54.8676 
  60   0.0000       2.080661        56.6177 
  61   0.0000       2.080688        56.6184 
  62   0.0000       2.173784        59.1517 
  63   0.0000       2.173811        59.1524 
  64   0.0000       2.224524        60.5324 
  65   0.0000       2.292076        62.3706 
  66   0.0000       2.312953        62.9386 
  67   0.0000       2.313045        62.9412 
  68   0.0000       2.338914        63.6451 
  69   0.0000       2.571288        69.9683 
  70   0.0000       2.700255        73.4777 
  71   0.0000       2.700300        73.4789 
  72   0.0000       2.839315        77.2617 
  73   0.0000       2.839415        77.2644 
  74   0.0000      13.677703       372.1892 
  75   0.0000      13.864131       377.2622 
  76   0.0000      13.864142       377.2625 
  77   0.0000      19.316396       525.6259 

                    ********************************
                    * MULLIKEN POPULATION ANALYSIS *
                    ********************************

-----------------------
MULLIKEN ATOMIC CHARGES
-----------------------
   0 N :   -0.368523
   1 C :   -0.490881
   2 C :   -0.490842
   3 C :   -0.490868
   4 H :    0.175804
   5 H :    0.218938
   6 H :    0.218935
   7 H :    0.175808
   8 H :    0.218954
   9 H :    0.218957
  10 H :    0.175815
  11 H :    0.218936
  12 H :    0.218967
Sum of atomic charges:   -0.0000000

--------------------------------
MULLIKEN REDUCED ORBITAL CHARGES
--------------------------------
  0 N s       :     3.546354  s :     3.546354
      pz      :     1.212381  p :     3.776542
      px      :     1.507914
      py      :     1.056246
      dz2     :     0.014060  d :     0.045627
      dxz     :     0.005087
      dyz     :     0.007219
      dx2y2   :     0.005710
      dxy     :     0.013551
  1 C s       :     3.334432  s :     3.334432
      pz      :     1.101808  p :     3.103683
      px      :     1.025034
      py      :     0.976841
      dz2     :     0.013714  d :     0.052766
      dxz     :     0.008229
      dyz     :     0.005417
      dx2y2   :     0.012405
      dxy     :     0.013002
  2 C s       :     3.334422  s :     3.334422
      pz      :     0.848069  p :     3.103651
      px      :     1.106740
      py      :     1.148842
      dz2     :     0.014897  d :     0.052770
      dxz     :     0.016612
      dyz     :     0.006537
      dx2y2   :     0.004970
      dxy     :     0.009753
  3 C s       :     3.334419  s :     3.334419
      pz      :     1.137111  p :     3.103684
      px      :     1.061608
      py      :     0.904965
      dz2     :     0.011933  d :     0.052765
      dxz     :     0.007837
      dyz     :     0.006753
      dx2y2   :     0.011916
      dxy     :     0.014326
  4 H s       :     0.824196  s :     0.824196
  5 H s       :     0.781062  s :     0.781062
  6 H s       :     0.781065  s :     0.781065
  7 H s       :     0.824192  s :     0.824192
  8 H s       :     0.781046  s :     0.781046
  9 H s       :     0.781043  s :     0.781043
 10 H s       :     0.824185  s :     0.824185
 11 H s       :     0.781064  s :     0.781064
 12 H s       :     0.781033  s :     0.781033


                     *******************************
                     * LOEWDIN POPULATION ANALYSIS *
                     *******************************

----------------------
LOEWDIN ATOMIC CHARGES
----------------------
   0 N :   -0.233215
   1 C :   -0.259152
   2 C :   -0.259143
   3 C :   -0.259149
   4 H :    0.093376
   5 H :    0.121748
   6 H :    0.121745
   7 H :    0.093388
   8 H :    0.121759
   9 H :    0.121752
  10 H :    0.093387
  11 H :    0.121743
  12 H :    0.121763

-------------------------------
LOEWDIN REDUCED ORBITAL CHARGES
-------------------------------
  0 N s       :     3.136129  s :     3.136129
      pz      :     1.290099  p :     3.991023
      px      :     1.546082
      py      :     1.154841
      dz2     :     0.031410  d :     0.106064
      dxz     :     0.011674
      dyz     :     0.019659
      dx2y2   :     0.014403
      dxy     :     0.028918
  1 C s       :     2.945601  s :     2.945601
      pz      :     1.110123  p :     3.212216
      px      :     1.069531
      py      :     1.032562
      dz2     :     0.024950  d :     0.101336
      dxz     :     0.015168
      dyz     :     0.010683
      dx2y2   :     0.024476
      dxy     :     0.026058
  2 C s       :     2.945603  s :     2.945603
      pz      :     0.958449  p :     3.212198
      px      :     1.118645
      py      :     1.135103
      dz2     :     0.031019  d :     0.101343
      dxz     :     0.033384
      dyz     :     0.013048
      dx2y2   :     0.007816
      dxy     :     0.016074
  3 C s       :     2.945597  s :     2.945597
      pz      :     1.131115  p :     3.212219
      px      :     1.091402
      py      :     0.989703
      dz2     :     0.021462  d :     0.101333
      dxz     :     0.013876
      dyz     :     0.013186
      dx2y2   :     0.023981
      dxy     :     0.028829
  4 H s       :     0.906624  s :     0.906624
  5 H s       :     0.878252  s :     0.878252
  6 H s       :     0.878255  s :     0.878255
  7 H s       :     0.906612  s :     0.906612
  8 H s       :     0.878241  s :     0.878241
  9 H s       :     0.878248  s :     0.878248
 10 H s       :     0.906613  s :     0.906613
 11 H s       :     0.878257  s :     0.878257
 12 H s       :     0.878237  s :     0.878237


                      *****************************
                      * MAYER POPULATION ANALYSIS *
                      *****************************

  NA   - Mulliken gross atomic population
  ZA   - Total nuclear charge
  QA   - Mulliken gross atomic charge
  VA   - Mayer's total valence
  BVA  - Mayer's bonded valence
  FA   - Mayer's free valence

  ATOM       NA         ZA         QA         VA         BVA        FA
  0 N      7.3685     7.0000    -0.3685     3.0006     3.0006    -0.0000
  1 C      6.4909     6.0000    -0.4909     3.7233     3.7233    -0.0000
  2 C      6.4908     6.0000    -0.4908     3.7233     3.7233    -0.0000
  3 C      6.4909     6.0000    -0.4909     3.7233     3.7233    -0.0000
  4 H      0.8242     1.0000     0.1758     0.9198     0.9198    -0.0000
  5 H      0.7811     1.0000     0.2189     0.9163     0.9163    -0.0000
  6 H      0.7811     1.0000     0.2189     0.9163     0.9163    -0.0000
  7 H      0.8242     1.0000     0.1758     0.9198     0.9198    -0.0000
  8 H      0.7810     1.0000     0.2190     0.9162     0.9162    -0.0000
  9 H      0.7810     1.0000     0.2190     0.9162     0.9162    -0.0000
 10 H      0.8242     1.0000     0.1758     0.9198     0.9198    -0.0000
 11 H      0.7811     1.0000     0.2189     0.9162     0.9162    -0.0000
 12 H      0.7810     1.0000     0.2190     0.9162     0.9162    -0.0000

  Mayer bond orders larger than 0.100000
B(  0-N ,  1-C ) :   0.9988 B(  0-N ,  2-C ) :   0.9988 B(  0-N ,  3-C ) :   0.9988 
B(  1-C , 10-H ) :   0.9058 B(  1-C , 11-H ) :   0.9283 B(  1-C , 12-H ) :   0.9283 
B(  2-C ,  4-H ) :   0.9058 B(  2-C ,  5-H ) :   0.9283 B(  2-C ,  6-H ) :   0.9283 
B(  3-C ,  7-H ) :   0.9058 B(  3-C ,  8-H ) :   0.9283 B(  3-C ,  9-H ) :   0.9283 


-------
TIMINGS
-------

Total SCF time: 0 days 0 hours 1 min 7 sec 

Total time                  ....      67.757 sec
Sum of individual times     ....      60.882 sec  ( 89.9%)

Fock matrix formation       ....      49.064 sec  ( 72.4%)
  Split-RI-J                ....       6.632 sec  ( 13.5% of F)
  Chain of spheres X        ....      13.322 sec  ( 27.2% of F)
  XC integration            ....      14.889 sec  ( 30.3% of F)
    Basis function eval.    ....       2.111 sec  ( 14.2% of XC)
    Density eval.           ....       1.079 sec  (  7.2% of XC)
    XC-Functional eval.     ....       0.987 sec  (  6.6% of XC)
    XC-Potential eval.      ....       0.697 sec  (  4.7% of XC)
Diagonalization             ....       1.362 sec  (  2.0%)
Density matrix formation    ....       0.171 sec  (  0.3%)
Population analysis         ....       1.057 sec  (  1.6%)
Initial guess               ....       0.005 sec  (  0.0%)
Orbital Transformation      ....       0.000 sec  (  0.0%)
Orbital Orthonormalization  ....       0.000 sec  (  0.0%)
DIIS solution               ....       2.077 sec  (  3.1%)
SOSCF solution              ....       1.553 sec  (  2.3%)
Grid generation             ....       5.594 sec  (  8.3%)

Maximum memory used throughout the entire SCF-calculation: 49.4 MB


-------------------------------------------------------------------------------
                          DFT DISPERSION CORRECTION                            
                                                                               
                              DFTD3 V3.1  Rev 1                                
                          USING Becke-Johnson damping                          
-------------------------------------------------------------------------------
The PBEh-3c composite method is recognized
Using three-body term ABC
Active option DFTDOPT                   ...         4   

molecular C6(AA) [au] = 1057.388522 


            DFT-D V3
 parameters
 s6 scaling factor         :     1.0000 
 a1 scaling factor         :     0.4860 
 s8 scaling factor         :     0.0000 
 a2 scaling factor         :     4.5000 
 Damping factor alpha9(ATM):    16.0000 
 ad hoc parameters k1-k3   :    16.0000     1.3333    -4.0000 

 Edisp/kcal,au: -3.067085280492  -0.004887710991 
 E6   /kcal   :  -3.077864563 
 E8   /kcal   :  -0.000000000 
 E6(ABC)      :   0.010779283 
 % E8         :   0.000000000 
 % E6(ABC)    :  -0.351450372 

-------------------------   ----------------
Dispersion correction           -0.004887711
-------------------------   ----------------

------------------   -----------------
gCP correction             0.022032376
------------------   -----------------

-------------------------   --------------------
FINAL SINGLE POINT ENERGY      -174.087078516902
-------------------------   --------------------


                            ***************************************
                            *     ORCA property calculations      *
                            ***************************************

                                    ---------------------
                                    Active property flags
                                    ---------------------
   (+) Dipole Moment


------------------------------------------------------------------------------
                       ORCA ELECTRIC PROPERTIES CALCULATION
------------------------------------------------------------------------------

Dipole Moment Calculation                       ... on
Quadrupole Moment Calculation                   ... off
Polarizability Calculation                      ... off
GBWName                                         ... pbeh-3c.gbw
Electron density                                ... pbeh-3c.scfp
The origin for moment calculation is the CENTER OF MASS  = (-8.927444,  0.002112  7.715546)

-------------
DIPOLE MOMENT
-------------
                                X             Y             Z
Electronic contribution:      1.26645       0.00876      -0.74467
Nuclear contribution   :     -1.51521      -0.01042       0.89081
                        -----------------------------------------
Total Dipole Moment    :     -0.24876      -0.00166       0.14614
                        -----------------------------------------
Magnitude (a.u.)       :      0.28852
Magnitude (Debye)      :      0.73335



--------------------
Rotational spectrum 
--------------------
 
Rotational constants in cm-1:     0.294156     0.294082     0.167607 
Rotational constants in MHz :  8818.578700  8816.349846  5024.720953 

 Dipole components along the rotational axes: 
x,y,z [a.u.] :    -0.000051    -0.000103     0.288517 
x,y,z [Debye]:    -0.000130    -0.000263     0.733351 

 

Timings for individual modules:

Sum of individual times         ...       71.492 sec (=   1.192 min)
GTO integral calculation        ...        2.535 sec (=   0.042 min)   3.5 %
SCF iterations                  ...       68.957 sec (=   1.149 min)  96.5 %
                             ****ORCA TERMINATED NORMALLY****
TOTAL RUN TIME: 0 days 0 hours 1 minutes 15 seconds 888 msec
