
                                 *****************
                                 * O   R   C   A *
                                 *****************

                                            #,                                       
                                            ###                                      
                                            ####                                     
                                            #####                                    
                                            ######                                   
                                           ########,                                 
                                     ,,################,,,,,                         
                               ,,#################################,,                 
                          ,,##########################################,,             
                       ,#########################################, ''#####,          
                    ,#############################################,,   '####,        
                  ,##################################################,,,,####,       
                ,###########''''           ''''###############################       
              ,#####''   ,,,,##########,,,,          '''####'''          '####       
            ,##' ,,,,###########################,,,                        '##       
           ' ,,###''''                  '''############,,,                           
         ,,##''                                '''############,,,,        ,,,,,,###''
      ,#''                                            '''#######################'''  
     '                                                          ''''####''''         
             ,#######,   #######,   ,#######,      ##                                
            ,#'     '#,  ##    ##  ,#'     '#,    #''#        ######   ,####,        
            ##       ##  ##   ,#'  ##            #'  '#       #        #'  '#        
            ##       ##  #######   ##           ,######,      #####,   #    #        
            '#,     ,#'  ##    ##  '#,     ,#' ,#      #,         ##   #,  ,#        
             '#######'   ##     ##  '#######'  #'      '#     #####' # '####'        



                  #######################################################
                  #                        -***-                        #
                  #          Department of theory and spectroscopy      #
                  #    Directorship and core code : Frank Neese         #
                  #        Max Planck Institute fuer Kohlenforschung    #
                  #                Kaiser Wilhelm Platz 1               #
                  #                 D-45470 Muelheim/Ruhr               #
                  #                      Germany                        #
                  #                                                     #
                  #                  All rights reserved                #
                  #                        -***-                        #
                  #######################################################


                         Program Version 5.0.3 -  RELEASE  -


 With contributions from (in alphabetic order):
   Daniel Aravena         : Magnetic Suceptibility
   Michael Atanasov       : Ab Initio Ligand Field Theory (pilot matlab implementation)
   Alexander A. Auer      : GIAO ZORA, VPT2 properties, NMR spectrum
   Ute Becker             : Parallelization
   Giovanni Bistoni       : ED, misc. LED, open-shell LED, HFLD
   Martin Brehm           : Molecular dynamics
   Dmytro Bykov           : SCF Hessian
   Vijay G. Chilkuri      : MRCI spin determinant printing, contributions to CSF-ICE
   Dipayan Datta          : RHF DLPNO-CCSD density
   Achintya Kumar Dutta   : EOM-CC, STEOM-CC
   Dmitry Ganyushin       : Spin-Orbit,Spin-Spin,Magnetic field MRCI
   Miquel Garcia          : C-PCM and meta-GGA Hessian, CC/C-PCM, Gaussian charge scheme
   Yang Guo               : DLPNO-NEVPT2, F12-NEVPT2, CIM, IAO-localization
   Andreas Hansen         : Spin unrestricted coupled pair/coupled cluster methods
   Benjamin Helmich-Paris : MC-RPA, TRAH-SCF, COSX integrals
   Lee Huntington         : MR-EOM, pCC
   Robert Izsak           : Overlap fitted RIJCOSX, COSX-SCS-MP3, EOM
   Marcus Kettner         : VPT2
   Christian Kollmar      : KDIIS, OOCD, Brueckner-CCSD(T), CCSD density, CASPT2, CASPT2-K
   Simone Kossmann        : Meta GGA functionals, TD-DFT gradient, OOMP2, MP2 Hessian
   Martin Krupicka        : Initial AUTO-CI
   Lucas Lang             : DCDCAS
   Marvin Lechner         : AUTO-CI (C++ implementation), FIC-MRCC
   Dagmar Lenk            : GEPOL surface, SMD
   Dimitrios Liakos       : Extrapolation schemes; Compound Job, initial MDCI parallelization
   Dimitrios Manganas     : Further ROCIS development; embedding schemes
   Dimitrios Pantazis     : SARC Basis sets
   Anastasios Papadopoulos: AUTO-CI, single reference methods and gradients
   Taras Petrenko         : DFT Hessian,TD-DFT gradient, ASA, ECA, R-Raman, ABS, FL, XAS/XES, NRVS
   Peter Pinski           : DLPNO-MP2, DLPNO-MP2 Gradient
   Christoph Reimann      : Effective Core Potentials
   Marius Retegan         : Local ZFS, SOC
   Christoph Riplinger    : Optimizer, TS searches, QM/MM, DLPNO-CCSD(T), (RO)-DLPNO pert. Triples
   Tobias Risthaus        : Range-separated hybrids, TD-DFT gradient, RPA, STAB
   Michael Roemelt        : Original ROCIS implementation
   Masaaki Saitow         : Open-shell DLPNO-CCSD energy and density
   Barbara Sandhoefer     : DKH picture change effects
   Avijit Sen             : IP-ROCIS
   Kantharuban Sivalingam : CASSCF convergence, NEVPT2, FIC-MRCI
   Bernardo de Souza      : ESD, SOC TD-DFT
   Georgi Stoychev        : AutoAux, RI-MP2 NMR, DLPNO-MP2 response
   Willem Van den Heuvel  : Paramagnetic NMR
   Boris Wezisla          : Elementary symmetry handling
   Frank Wennmohs         : Technical directorship


 We gratefully acknowledge several colleagues who have allowed us to
 interface, adapt or use parts of their codes:
   Stefan Grimme, W. Hujo, H. Kruse, P. Pracht,  : VdW corrections, initial TS optimization,
                  C. Bannwarth, S. Ehlert          DFT functionals, gCP, sTDA/sTD-DF
   Ed Valeev, F. Pavosevic, A. Kumar             : LibInt (2-el integral package), F12 methods
   Garnet Chan, S. Sharma, J. Yang, R. Olivares  : DMRG
   Ulf Ekstrom                                   : XCFun DFT Library
   Mihaly Kallay                                 : mrcc  (arbitrary order and MRCC methods)
   Jiri Pittner, Ondrej Demel                    : Mk-CCSD
   Frank Weinhold                                : gennbo (NPA and NBO analysis)
   Christopher J. Cramer and Donald G. Truhlar   : smd solvation model
   Lars Goerigk                                  : TD-DFT with DH, B97 family of functionals
   V. Asgeirsson, H. Jonsson                     : NEB implementation
   FAccTs GmbH                                   : IRC, NEB, NEB-TS, DLPNO-Multilevel, CI-OPT
                                                   MM, QMMM, 2- and 3-layer-ONIOM, Crystal-QMMM,
                                                   LR-CPCM, SF, NACMEs, symmetry and pop. for TD-DFT,
                                                   nearIR, NL-DFT gradient (VV10), updates on ESD,
                                                   ML-optimized integration grids
   S Lehtola, MJT Oliveira, MAL Marques          : LibXC Library
   Liviu Ungur et al                             : ANISO software


 Your calculation uses the libint2 library for the computation of 2-el integrals
 For citations please refer to: http://libint.valeyev.net

 Your ORCA version has been built with support for libXC version: 5.1.0
 For citations please refer to: https://tddft.org/programs/libxc/

 This ORCA versions uses:
   CBLAS   interface :  Fast vector & matrix operations
   LAPACKE interface :  Fast linear algebra routines
   SCALAPACK package :  Parallel linear algebra routines
   Shared memory     :  Shared parallel matrices
   BLAS/LAPACK       :  OpenBLAS 0.3.15  USE64BITINT DYNAMIC_ARCH NO_AFFINITY Haswell SINGLE_THREADED
        Core in use  :  Haswell
   Copyright (c) 2011-2014, The OpenBLAS Project




***************************************
The coordinates will be read from file: 09.xyz
***************************************


Your calculation utilizes the geometrical counterpoise correction gCP
Please cite in your paper:
H.Kruse, S. Grimme J.Chem.Phys., 136, (2012), 154101 
   

Your calculation utilizes the atom-pairwise dispersion correction
with the Becke-Johnson damping scheme (D3BJ)
Cite in your paper:
S.Grimme, S.Ehrlich, L.Goerigk, J Comput Chem, (2011), 32, 1456–1465 
S.Grimme, J.Antony, S.Ehrlich and H.Krieg, J.Chem.Phys., 132, (2010), 154104 
   

Your calculation employs the composite approach PBEh-3c.
Please cite in your paper:
S. Grimme, J. G. Brandenburg, C. Bannwarth, A. Hansen J.Chem.Phys., 143, (2015), 054107 
   

================================================================================

----- Orbital basis set information -----
Your calculation utilizes the basis: def2-mSVP

----- AuxJ basis set information -----
Your calculation utilizes the auxiliary basis: def2/J
   F. Weigend, Phys. Chem. Chem. Phys. 8, 1057 (2006).

================================================================================
                                        WARNINGS
                       Please study these warnings very carefully!
================================================================================


INFO   : the flag for use of the SHARK integral package has been found!

================================================================================
                                       INPUT FILE
================================================================================
NAME = pbeh-3c.inp
|  1> ! PBEh-3c def2/J TightSCF DefGrid3
|  2> 
|  3> %maxcore 60000
|  4> 
|  5> %pal
|  6> nprocs 4
|  7> end
|  8> 
|  9> *xyzfile 0 1 09.xyz
| 10> 
| 11>                          ****END OF INPUT****
================================================================================

                       ****************************
                       * Single Point Calculation *
                       ****************************

---------------------------------
CARTESIAN COORDINATES (ANGSTROEM)
---------------------------------
  H      2.102742    0.908723   -0.274447
  H      0.089450    0.916293   -0.212195
  H     -2.087413   -0.658013    0.050620
  H      1.172906    2.172939    1.383223
  Li    -0.023755   -1.144548    2.373299
  H      1.864223   -0.478910   -2.650735
  C      1.033674   -0.443710   -1.934227
  B      1.088555    0.900107   -1.091710
  H     -3.387248   -0.905279    1.664907
  H      1.083498   -1.353063   -1.322555
  Si     1.075558    0.714888    1.069733
  H      0.108363   -0.493678   -2.521166
  Cl    -1.416466    0.744894    2.171464
  F     -1.460010   -1.978884    1.690051
  H      1.042152    1.979498   -1.604386
  B     -2.286230   -0.881258    1.208125

----------------------------
CARTESIAN COORDINATES (A.U.)
----------------------------
  NO LB      ZA    FRAG     MASS         X           Y           Z
   0 H     1.0000    0     1.008    3.973607    1.717238   -0.518629
   1 H     1.0000    0     1.008    0.169037    1.731544   -0.400990
   2 H     1.0000    0     1.008   -3.944639   -1.243464    0.095659
   3 H     1.0000    0     1.008    2.216472    4.106260    2.613913
   4 Li    3.0000    0     6.941   -0.044890   -2.162883    4.484886
   5 H     1.0000    0     1.008    3.522871   -0.905009   -5.009163
   6 C     6.0000    0    12.011    1.953361   -0.838490   -3.655160
   7 B     5.0000    0    10.810    2.057070    1.700956   -2.063033
   8 H     1.0000    0     1.008   -6.400971   -1.710729    3.146218
   9 H     1.0000    0     1.008    2.047515   -2.556919   -2.499267
  10 Si   14.0000    0    28.086    2.032511    1.350943    2.021503
  11 H     1.0000    0     1.008    0.204776   -0.932917   -4.764314
  12 Cl   17.0000    0    35.453   -2.676733    1.407646    4.103472
  13 F     9.0000    0    18.998   -2.759020   -3.739548    3.193733
  14 H     1.0000    0     1.008    1.969381    3.740709   -3.031851
  15 B     5.0000    0    10.810   -4.320348   -1.665336    2.283025

--------------------------------
INTERNAL COORDINATES (ANGSTROEM)
--------------------------------
 H      0   0   0     0.000000000000     0.00000000     0.00000000
 H      1   0   0     2.014268124977     0.00000000     0.00000000
 H      2   1   0     2.699304444110   143.79216138     0.00000000
 H      1   2   3     2.282697366814    64.42653664   239.29205805
 Li     3   2   1     3.144875187133    68.46597588    52.10964424
 H      1   2   3     2.762093929464    86.68441090    66.81103097
 C      6   1   2     1.097467428917    59.17330591   340.15149221
 B      1   2   3     1.302524465747    40.63809969    96.20655106
 H      3   2   1     2.087254836262   130.28657914   105.99493726
 H      7   6   1     1.097063377627   107.64124288   263.81783074
 Si     4   1   2     1.494544795546    48.23381310    59.39967695
 H      7   6   1     1.096902700825   106.71403527   148.79559568
 Cl     5   3   2     2.355923545796    54.88206073    73.93920821
 F      5   3   2     1.796044148801    42.79070221   195.32474234
 H      8   1   2     1.195857495102   107.05173771   108.11438883
 B      9   3   2     1.192253384808    29.09789400   308.07939661

---------------------------
INTERNAL COORDINATES (A.U.)
---------------------------
 H      0   0   0     0.000000000000     0.00000000     0.00000000
 H      1   0   0     3.806415116494     0.00000000     0.00000000
 H      2   1   0     5.100946151444   143.79216138     0.00000000
 H      1   2   3     4.313672869903    64.42653664   239.29205805
 Li     3   2   1     5.942952829046    68.46597588    52.10964424
 H      1   2   3     5.219601082853    86.68441090    66.81103097
 C      6   1   2     2.073912881551    59.17330591   340.15149221
 B      1   2   3     2.461414522993    40.63809969    96.20655106
 H      3   2   1     3.944340012238   130.28657914   105.99493726
 H      7   6   1     2.073149335269   107.64124288   263.81783074
 Si     4   1   2     2.824280358460    48.23381310    59.39967695
 H      7   6   1     2.072845700118   106.71403527   148.79559568
 Cl     5   3   2     4.452050294011    54.88206073    73.93920821
 F      5   3   2     3.394031565666    42.79070221   195.32474234
 H      8   1   2     2.259843160939   107.05173771   108.11438883
 B      9   3   2     2.253032379528    29.09789400   308.07939661

---------------------
BASIS SET INFORMATION
---------------------
There are 7 groups of distinct atoms

 Group   1 Type H   : 4s contracted to 2s pattern {31}
 Group   2 Type Li  : 7s3p contracted to 3s2p pattern {511/21}
 Group   3 Type C   : 8s4p1d contracted to 4s2p1d pattern {5111/31/1}
 Group   4 Type B   : 8s4p1d contracted to 4s2p1d pattern {5111/31/1}
 Group   5 Type Si  : 10s7p1d contracted to 4s3p1d pattern {5311/511/1}
 Group   6 Type Cl  : 10s7p1d contracted to 4s3p1d pattern {5311/511/1}
 Group   7 Type F   : 8s4p1d contracted to 4s2p1d pattern {5111/31/1}

Atom   0H    basis set group =>   1
Atom   1H    basis set group =>   1
Atom   2H    basis set group =>   1
Atom   3H    basis set group =>   1
Atom   4Li   basis set group =>   2
Atom   5H    basis set group =>   1
Atom   6C    basis set group =>   3
Atom   7B    basis set group =>   4
Atom   8H    basis set group =>   1
Atom   9H    basis set group =>   1
Atom  10Si   basis set group =>   5
Atom  11H    basis set group =>   1
Atom  12Cl   basis set group =>   6
Atom  13F    basis set group =>   7
Atom  14H    basis set group =>   1
Atom  15B    basis set group =>   4
---------------------------------
AUXILIARY/J BASIS SET INFORMATION
---------------------------------
There are 7 groups of distinct atoms

 Group   1 Type H   : 5s2p1d contracted to 3s1p1d pattern {311/2/1}
 Group   2 Type Li  : 12s5p4d2f1g contracted to 6s4p3d1f1g pattern {711111/2111/211/2/1}
 Group   3 Type C   : 12s5p4d2f1g contracted to 6s4p3d1f1g pattern {711111/2111/211/2/1}
 Group   4 Type B   : 12s5p4d2f1g contracted to 6s4p3d1f1g pattern {711111/2111/211/2/1}
 Group   5 Type Si  : 14s5p5d2f1g contracted to 8s4p3d1f1g pattern {71111111/2111/311/2/1}
 Group   6 Type Cl  : 14s5p5d2f1g contracted to 8s4p3d1f1g pattern {71111111/2111/311/2/1}
 Group   7 Type F   : 12s5p4d2f1g contracted to 6s4p3d1f1g pattern {711111/2111/211/2/1}

Atom   0H    basis set group =>   1
Atom   1H    basis set group =>   1
Atom   2H    basis set group =>   1
Atom   3H    basis set group =>   1
Atom   4Li   basis set group =>   2
Atom   5H    basis set group =>   1
Atom   6C    basis set group =>   3
Atom   7B    basis set group =>   4
Atom   8H    basis set group =>   1
Atom   9H    basis set group =>   1
Atom  10Si   basis set group =>   5
Atom  11H    basis set group =>   1
Atom  12Cl   basis set group =>   6
Atom  13F    basis set group =>   7
Atom  14H    basis set group =>   1
Atom  15B    basis set group =>   4


           ************************************************************
           *        Program running with 4 parallel MPI-processes     *
           *              working on a common directory               *
           ************************************************************
------------------------------------------------------------------------------
                           ORCA GTO INTEGRAL CALCULATION
                           -- RI-GTO INTEGRALS CHOSEN --
------------------------------------------------------------------------------
------------------------------------------------------------------------------
                   ___                                                        
                  /   \      - P O W E R E D   B Y -                         
                 /     \                                                     
                 |  |  |   _    _      __       _____    __    __             
                 |  |  |  | |  | |    /  \     |  _  \  |  |  /  |          
                  \  \/   | |  | |   /    \    | | | |  |  | /  /          
                 / \  \   | |__| |  /  /\  \   | |_| |  |  |/  /          
                |  |  |   |  __  | /  /__\  \  |    /   |      \           
                |  |  |   | |  | | |   __   |  |    \   |  |\   \          
                \     /   | |  | | |  |  |  |  | |\  \  |  | \   \       
                 \___/    |_|  |_| |__|  |__|  |_| \__\ |__|  \__/        
                                                                              
                      - O R C A' S   B I G   F R I E N D -                    
                                      &                                       
                       - I N T E G R A L  F E E D E R -                       
                                                                              
 v1 FN, 2020, v2 2021                                                         
------------------------------------------------------------------------------


Reading SHARK input file pbeh-3c.SHARKINP.tmp ... ok
----------------------
SHARK INTEGRAL PACKAGE
----------------------

Number of atoms                             ...     16
Number of basis functions                   ...    123
Number of shells                            ...     67
Maximum angular momentum                    ...      2
Integral batch strategy                     ... SHARK/LIBINT Hybrid
RI-J (if used) integral strategy            ... SPLIT-RIJ (Revised 2003 algorithm where possible)
Printlevel                                  ...      1
Contraction scheme used                     ... SEGMENTED contraction
Coulomb Range Separation                    ... NOT USED
Exchange Range Separation                   ... NOT USED
Finite Nucleus Model                        ... NOT USED
Auxiliary Coulomb fitting basis             ... AVAILABLE
   # of basis functions in Aux-J            ...    446
   # of shells in Aux-J                     ...    154
   Maximum angular momentum in Aux-J        ...      4
Auxiliary J/K fitting basis                 ... NOT available
Auxiliary Correlation fitting basis         ... NOT available
Auxiliary 'external' fitting basis          ... NOT available
Integral threshold                          ...     2.500000e-11
Primitive cut-off                           ...     2.500000e-12
Primitive pair pre-selection threshold      ...     2.500000e-12

Calculating pre-screening integrals         ... done (  0.1 sec) Dimension = 67
Organizing shell pair data                  ... done (  0.1 sec)
Shell pair information
Total number of shell pairs                 ...      2278
Shell pairs after pre-screening             ...      2032
Total number of primitive shell pairs       ...      9181
Primitive shell pairs kept                  ...      5649
          la=0 lb=0:    886 shell pairs
          la=1 lb=0:    667 shell pairs
          la=1 lb=1:    133 shell pairs
          la=2 lb=0:    234 shell pairs
          la=2 lb=1:     91 shell pairs
          la=2 lb=2:     21 shell pairs

Calculating one electron integrals          ... done (  0.0 sec)
Calculating RI/J V-Matrix + Cholesky decomp.... done (  0.1 sec)
Calculating Nuclear repulsion               ... done (  0.0 sec) ENN=    361.514126082059 Eh

SHARK setup successfully completed in   0.9 seconds

Maximum memory used throughout the entire GTOINT-calculation: 10.8 MB


           ************************************************************
           *        Program running with 4 parallel MPI-processes     *
           *              working on a common directory               *
           ************************************************************
-------------------------------------------------------------------------------
                                 ORCA SCF
-------------------------------------------------------------------------------

------------
SCF SETTINGS
------------
Hamiltonian:
 Density Functional     Method          .... DFT(GTOs)
 Exchange Functional    Exchange        .... PBE
   PBE kappa parameter   XKappa         ....  1.024500
   PBE mue parameter    XMuePBE         ....  0.123457
 Correlation Functional Correlation     .... PBE
   PBE beta parameter  CBetaPBE         ....  0.030000
 LDA part of GGA corr.  LDAOpt          .... PW91-LDA
 Gradients option       PostSCFGGA      .... off
 Hybrid DFT is turned on
   Fraction HF Exchange ScalHFX         ....  0.420000
   Scaling of DF-GGA-X  ScalDFX         ....  0.580000
   Scaling of DF-GGA-C  ScalDFC         ....  1.000000
   Scaling of DF-LDA-C  ScalLDAC        ....  1.000000
   Perturbative correction              ....  0.000000
   Density functional embedding theory  .... OFF
 RI-approximation to the Coulomb term is turned on
   Number of AuxJ basis functions       .... 446
   RIJ-ON(X) (HFX calculated with O(N)) .... on
   Number of AuxJ basis functions       .... 446
   RIJ-COSX (HFX calculated with COS-X)).... on


General Settings:
 Integral files         IntName         .... pbeh-3c
 Hartree-Fock type      HFTyp           .... RHF
 Total Charge           Charge          ....    0
 Multiplicity           Mult            ....    1
 Number of Electrons    NEL             ....   68
 Basis Dimension        Dim             ....  123
 Nuclear Repulsion      ENuc            ....    361.5141260821 Eh

Convergence Acceleration:
 DIIS                   CNVDIIS         .... on
   Start iteration      DIISMaxIt       ....    12
   Startup error        DIISStart       ....  0.200000
   # of expansion vecs  DIISMaxEq       ....     5
   Bias factor          DIISBfac        ....   1.050
   Max. coefficient     DIISMaxC        ....  10.000
 Trust-Rad. Augm. Hess. CNVTRAH         .... auto
   Auto Start mean grad. ratio tolernc. ....  1.125000
   Auto Start start iteration           ....    20
   Auto Start num. interpolation iter.  ....    10
   Max. Number of Micro iterations      ....    16
   Max. Number of Macro iterations      .... Maxiter - #DIIS iter
   Number of Davidson start vectors     ....     2
   Converg. threshold I  (grad. norm)   ....   1.000e-05
   Converg. threshold II (energy diff.) ....   1.000e-08
   Grad. Scal. Fac. for Micro threshold ....   0.100
   Minimum threshold for Micro iter.    ....   0.010
   NR start threshold (gradient norm)   ....   0.001
   Initial trust radius                 ....   0.400
   Minimum AH scaling param. (alpha)    ....   1.000
   Maximum AH scaling param. (alpha)    .... 1000.000
   Orbital update algorithm             .... Taylor
   White noise on init. David. guess    .... on
   Maximum white noise                  ....   0.010
   Quad. conv. algorithm                .... NR
   COSX micro iterations for RIJONX calc.... off
 SOSCF                  CNVSOSCF        .... on
   Start iteration      SOSCFMaxIt      ....   150
   Startup grad/error   SOSCFStart      ....  0.003300
 Level Shifting         CNVShift        .... on
   Level shift para.    LevelShift      ....    0.2500
   Turn off err/grad.   ShiftErr        ....    0.0010
 Zerner damping         CNVZerner       .... off
 Static damping         CNVDamp         .... on
   Fraction old density DampFac         ....    0.7000
   Max. Damping (<1)    DampMax         ....    0.9800
   Min. Damping (>=0)   DampMin         ....    0.0000
   Turn off err/grad.   DampErr         ....    0.1000
 Fernandez-Rico         CNVRico         .... off

SCF Procedure:
 Maximum # iterations   MaxIter         ....   125
 SCF integral mode      SCFMode         .... Direct
   Integral package                     .... SHARK and LIBINT hybrid scheme
 Reset frequency        DirectResetFreq ....    20
 Integral Threshold     Thresh          ....  2.500e-11 Eh
 Primitive CutOff       TCut            ....  2.500e-12 Eh

Convergence Tolerance:
 Convergence Check Mode ConvCheckMode   .... Total+1el-Energy
 Convergence forced     ConvForced      .... 0
 Energy Change          TolE            ....  1.000e-08 Eh
 1-El. energy change                    ....  1.000e-05 Eh
 Orbital Gradient       TolG            ....  1.000e-05
 Orbital Rotation angle TolX            ....  1.000e-05
 DIIS Error             TolErr          ....  5.000e-07


Diagonalization of the overlap matrix:
Smallest eigenvalue                        ... 6.387e-03
Time for diagonalization                   ...    0.003 sec
Threshold for overlap eigenvalues          ... 1.000e-08
Number of eigenvalues below threshold      ... 0
Time for construction of square roots      ...    0.017 sec
Total time needed                          ...    0.020 sec

--------------------------------
INITIAL GUESS: MINIMAL BASIS EHT
--------------------------------
The minimal basis has 52 functions
EHT matrix was diagonalized
Basis set overlap was calculated now projecting the orbitals
Using GuessMode=FMatrix for the initial guess
C*T matrix was formed
Effective Fockian was calculated
Effective Fockian was diagonalized
Initial density was built
                      ------------------
                      INITIAL GUESS DONE
                      ------------------
-------------------
DFT GRID GENERATION
-------------------

General Integration Accuracy     IntAcc      ... 4.959
Radial Grid Type                 RadialGrid  ... OptM3 with GC (2021)
Angular Grid (max. ang.)         AngularGrid ... 6 (Lebedev-590)
Angular grid pruning method      GridPruning ... 4 (adaptive)
Weight generation scheme         WeightScheme... Becke
Basis function cutoff            BFCut       ... 1.0000e-11
Integration weight cutoff        WCut        ... 1.0000e-14
Angular grids for H and He will be reduced by one unit
Partially contracted basis set               ... off
Rotationally invariant grid construction     ... off

Total number of grid points                  ...   181290
Total number of batches                      ...     2838
Average number of points per batch           ...       63
Average number of grid points per atom       ...    11331
Time for grid setup =    3.123 sec

--------------------
COSX GRID GENERATION
--------------------

GRIDX 1
-------
General Integration Accuracy     IntAcc      ... 4.020
Radial Grid Type                 RadialGrid  ... OptM3 with GC (2021)
Angular Grid (max. ang.)         AngularGrid ... 2 (Lebedev-110)
Angular grid pruning method      GridPruning ... 4 (adaptive)
Weight generation scheme         WeightScheme... Becke
Basis function cutoff            BFCut       ... 1.0000e-11
Integration weight cutoff        WCut        ... 1.0000e-14
Angular grids for H and He will be reduced by one unit
Partially contracted basis set               ... on
Rotationally invariant grid construction     ... off

Total number of grid points                  ...    19650
Total number of batches                      ...      313
Average number of points per batch           ...       62
Average number of grid points per atom       ...     1228
UseSFitting                                  ... on

GRIDX 2
-------
General Integration Accuracy     IntAcc      ... 4.338
Radial Grid Type                 RadialGrid  ... OptM3 with GC (2021)
Angular Grid (max. ang.)         AngularGrid ... 3 (Lebedev-194)
Angular grid pruning method      GridPruning ... 4 (adaptive)
Weight generation scheme         WeightScheme... Becke
Basis function cutoff            BFCut       ... 1.0000e-11
Integration weight cutoff        WCut        ... 1.0000e-14
Angular grids for H and He will be reduced by one unit
Partially contracted basis set               ... on
Rotationally invariant grid construction     ... off

Total number of grid points                  ...    44120
Total number of batches                      ...      697
Average number of points per batch           ...       63
Average number of grid points per atom       ...     2758
UseSFitting                                  ... on

GRIDX 3
-------
General Integration Accuracy     IntAcc      ... 4.871
Radial Grid Type                 RadialGrid  ... OptM3 with GC (2021)
Angular Grid (max. ang.)         AngularGrid ... 4 (Lebedev-302)
Angular grid pruning method      GridPruning ... 4 (adaptive)
Weight generation scheme         WeightScheme... Becke
Basis function cutoff            BFCut       ... 1.0000e-11
Integration weight cutoff        WCut        ... 1.0000e-14
Angular grids for H and He will be reduced by one unit
Partially contracted basis set               ... on
Rotationally invariant grid construction     ... off

Total number of grid points                  ...    84729
Total number of batches                      ...     1331
Average number of points per batch           ...       63
Average number of grid points per atom       ...     5296
UseSFitting                                  ... on

Time for X-Grid setup             =    2.632 sec

--------------
SCF ITERATIONS
--------------
ITER       Energy         Delta-E        Max-DP      RMS-DP      [F,P]     Damp
               ***  Starting incremental Fock matrix formation  ***
  0   -947.8275086496   0.000000000000 0.18077990  0.00639702  0.6714975 0.7000
  1   -948.2604097195  -0.432901069957 0.11093406  0.00418491  0.2936540 0.7000
                               ***Turning on DIIS***
  2   -948.5155864778  -0.255176758242 0.09346057  0.00275150  0.1989331 0.7000
  3   -948.6899065428  -0.174320065026 0.08967091  0.00199714  0.1389591 0.7000
  4   -948.8126718972  -0.122765354431 0.23257221  0.00486460  0.0976646 0.0000
  5   -949.1041639764  -0.291492079210 0.01117204  0.00031148  0.0097575 0.0000
  6   -949.1044515856  -0.000287609135 0.00425691  0.00011647  0.0058717 0.0000
                      *** Initiating the SOSCF procedure ***
                           *** Shutting down DIIS ***
                      *** Re-Reading the Fockian *** 
                      *** Removing any level shift *** 
ITER      Energy       Delta-E        Grad      Rot      Max-DP    RMS-DP
  7   -949.10451467  -0.0000630847  0.000554  0.000554  0.002319  0.000089
               *** Restarting incremental Fock matrix formation ***
  8   -949.10448999   0.0000246805  0.000208  0.000448  0.001292  0.000042
  9   -949.10449071  -0.0000007204  0.000229  0.000257  0.000658  0.000016
 10   -949.10449205  -0.0000013443  0.000025  0.000102  0.000078  0.000004
 11   -949.10449206  -0.0000000105  0.000026  0.000022  0.000045  0.000002
                  ***Gradient check signals convergence***
              ***Rediagonalizing the Fockian in SOSCF/NRSCF***

               *****************************************************
               *                     SUCCESS                       *
               *           SCF CONVERGED AFTER  12 CYCLES          *
               *****************************************************

Old exchange energy                            =    -31.903946311 Eh
New exchange energy                            =    -31.903933149 Eh
Exchange energy change after final integration =      0.000013162 Eh
Total energy after final integration           =   -949.104478915 Eh
Final COS-X integration done in                =     5.703 sec

----------------
TOTAL SCF ENERGY
----------------

Total Energy       :         -949.10447891 Eh          -25826.44586 eV

Components:
Nuclear Repulsion  :          361.51412608 Eh            9837.29949 eV
Electronic Energy  :        -1310.61860500 Eh          -35663.74535 eV
One Electron Energy:        -2029.00190614 Eh          -55211.94879 eV
Two Electron Energy:          718.38330114 Eh           19548.20344 eV
Max COSX asymmetry :            0.00000629 Eh               0.00017 eV

Virial components:
Potential Energy   :        -1895.47248669 Eh          -51578.42856 eV
Kinetic Energy     :          946.36800777 Eh           25751.98270 eV
Virial Ratio       :            2.00289155


DFT components:
N(Alpha)           :       33.999953816101 electrons
N(Beta)            :       33.999953816101 electrons
N(Total)           :       67.999907632202 electrons
E(X)               :      -42.446411538750 Eh       
E(C)               :       -3.120413419923 Eh       
E(XC)              :      -45.566824958673 Eh       
DFET-embed. en.    :        0.000000000000 Eh       

---------------
SCF CONVERGENCE
---------------

  Last Energy change         ...   -1.1543e-08  Tolerance :   1.0000e-08
  Last MAX-Density change    ...    6.2172e-15  Tolerance :   1.0000e-07
  Last RMS-Density change    ...    1.0191e-16  Tolerance :   5.0000e-09
  Last Orbital Gradient      ...    1.5549e-06  Tolerance :   1.0000e-05
  Last Orbital Rotation      ...    6.9503e-06  Tolerance :   1.0000e-05

             **** THE GBW FILE WAS UPDATED (pbeh-3c.gbw) ****
             **** DENSITY pbeh-3c.scfp WAS UPDATED ****
             **** ENERGY FILE WAS UPDATED (pbeh-3c.en.tmp) ****
             **** THE GBW FILE WAS UPDATED (pbeh-3c.gbw) ****
             **** DENSITY pbeh-3c.scfp WAS UPDATED ****
----------------
ORBITAL ENERGIES
----------------

  NO   OCC          E(Eh)            E(eV) 
   0   2.0000    -102.292626     -2783.5239 
   1   2.0000     -66.773417     -1816.9971 
   2   2.0000     -25.094970      -682.8689 
   3   2.0000     -10.412159      -283.3292 
   4   2.0000      -9.757770      -265.5224 
   5   2.0000      -7.441675      -202.4983 
   6   2.0000      -7.440043      -202.4539 
   7   2.0000      -7.438728      -202.4181 
   8   2.0000      -7.000161      -190.4841 
   9   2.0000      -6.967721      -189.6013 
  10   2.0000      -5.548888      -150.9929 
  11   2.0000      -3.841705      -104.5381 
  12   2.0000      -3.838922      -104.4624 
  13   2.0000      -3.834354      -104.3381 
  14   2.0000      -2.136280       -58.1311 
  15   2.0000      -1.309574       -35.6353 
  16   2.0000      -0.895405       -24.3652 
  17   2.0000      -0.784559       -21.3489 
  18   2.0000      -0.692319       -18.8390 
  19   2.0000      -0.622033       -16.9264 
  20   2.0000      -0.534861       -14.5543 
  21   2.0000      -0.528146       -14.3716 
  22   2.0000      -0.514650       -14.0043 
  23   2.0000      -0.492035       -13.3890 
  24   2.0000      -0.481043       -13.0898 
  25   2.0000      -0.464958       -12.6522 
  26   2.0000      -0.426202       -11.5975 
  27   2.0000      -0.400003       -10.8846 
  28   2.0000      -0.394914       -10.7462 
  29   2.0000      -0.385803       -10.4982 
  30   2.0000      -0.383761       -10.4427 
  31   2.0000      -0.371430       -10.1071 
  32   2.0000      -0.343593        -9.3497 
  33   2.0000      -0.294011        -8.0005 
  34   0.0000      -0.032900        -0.8952 
  35   0.0000      -0.013191        -0.3589 
  36   0.0000       0.014689         0.3997 
  37   0.0000       0.060141         1.6365 
  38   0.0000       0.084715         2.3052 
  39   0.0000       0.096731         2.6322 
  40   0.0000       0.117430         3.1954 
  41   0.0000       0.134724         3.6660 
  42   0.0000       0.136644         3.7183 
  43   0.0000       0.158264         4.3066 
  44   0.0000       0.164967         4.4890 
  45   0.0000       0.189164         5.1474 
  46   0.0000       0.196487         5.3467 
  47   0.0000       0.207757         5.6533 
  48   0.0000       0.226729         6.1696 
  49   0.0000       0.250174         6.8076 
  50   0.0000       0.259108         7.0507 
  51   0.0000       0.275993         7.5102 
  52   0.0000       0.286518         7.7965 
  53   0.0000       0.322723         8.7817 
  54   0.0000       0.340641         9.2693 
  55   0.0000       0.359038         9.7699 
  56   0.0000       0.372604        10.1391 
  57   0.0000       0.399111        10.8604 
  58   0.0000       0.410117        11.1598 
  59   0.0000       0.449840        12.2408 
  60   0.0000       0.462482        12.5848 
  61   0.0000       0.487438        13.2639 
  62   0.0000       0.507733        13.8161 
  63   0.0000       0.523164        14.2360 
  64   0.0000       0.531642        14.4667 
  65   0.0000       0.559264        15.2183 
  66   0.0000       0.579572        15.7709 
  67   0.0000       0.592018        16.1096 
  68   0.0000       0.632550        17.2126 
  69   0.0000       0.636113        17.3095 
  70   0.0000       0.661090        17.9892 
  71   0.0000       0.674623        18.3574 
  72   0.0000       0.697918        18.9913 
  73   0.0000       0.714263        19.4361 
  74   0.0000       0.724752        19.7215 
  75   0.0000       0.734990        20.0001 
  76   0.0000       0.769015        20.9260 
  77   0.0000       0.845479        23.0067 
  78   0.0000       0.851806        23.1788 
  79   0.0000       0.860105        23.4047 
  80   0.0000       0.875922        23.8351 
  81   0.0000       0.895204        24.3597 
  82   0.0000       1.030734        28.0477 
  83   0.0000       1.032285        28.0899 
  84   0.0000       1.061101        28.8740 
  85   0.0000       1.089258        29.6402 
  86   0.0000       1.097578        29.8666 
  87   0.0000       1.111597        30.2481 
  88   0.0000       1.124542        30.6003 
  89   0.0000       1.149392        31.2765 
  90   0.0000       1.179019        32.0827 
  91   0.0000       1.210524        32.9400 
  92   0.0000       1.250127        34.0177 
  93   0.0000       1.265408        34.4335 
  94   0.0000       1.270862        34.5819 
  95   0.0000       1.304050        35.4850 
  96   0.0000       1.322592        35.9896 
  97   0.0000       1.373122        37.3646 
  98   0.0000       1.394843        37.9556 
  99   0.0000       1.415560        38.5193 
 100   0.0000       1.456530        39.6342 
 101   0.0000       1.534414        41.7535 
 102   0.0000       1.588589        43.2277 
 103   0.0000       1.719582        46.7922 
 104   0.0000       1.859819        50.6082 
 105   0.0000       1.885511        51.3074 
 106   0.0000       1.956586        53.2414 
 107   0.0000       1.995618        54.3035 
 108   0.0000       2.008226        54.6466 
 109   0.0000       2.112539        57.4851 
 110   0.0000       2.158597        58.7384 
 111   0.0000       2.190858        59.6163 
 112   0.0000       2.285082        62.1802 
 113   0.0000       2.296975        62.5039 
 114   0.0000       2.341812        63.7239 
 115   0.0000       2.376485        64.6674 
 116   0.0000       2.431099        66.1536 
 117   0.0000       2.630889        71.5901 
 118   0.0000       3.165146        86.1280 
 119   0.0000       9.144417       248.8322 
 120   0.0000       9.229567       251.1493 
 121   0.0000      13.814186       375.9031 
 122   0.0000      32.696203       889.7089 

                    ********************************
                    * MULLIKEN POPULATION ANALYSIS *
                    ********************************

-----------------------
MULLIKEN ATOMIC CHARGES
-----------------------
   0 H :    0.026618
   1 H :    0.064525
   2 H :    0.011239
   3 H :    0.035554
   4 Li:    0.681442
   5 H :    0.224341
   6 C :   -0.793409
   7 B :   -0.104561
   8 H :    0.015197
   9 H :    0.216744
  10 Si:   -0.111532
  11 H :    0.231323
  12 Cl:   -0.362351
  13 F :   -0.425268
  14 H :    0.107758
  15 B :    0.182380
Sum of atomic charges:   -0.0000000

--------------------------------
MULLIKEN REDUCED ORBITAL CHARGES
--------------------------------
  0 H s       :     0.973382  s :     0.973382
  1 H s       :     0.935475  s :     0.935475
  2 H s       :     0.988761  s :     0.988761
  3 H s       :     0.964446  s :     0.964446
  4 Lis       :     2.109387  s :     2.109387
      pz      :     0.032611  p :     0.209171
      px      :     0.101695
      py      :     0.074865
  5 H s       :     0.775659  s :     0.775659
  6 C s       :     3.391123  s :     3.391123
      pz      :     1.111251  p :     3.375448
      px      :     1.138029
      py      :     1.126168
      dz2     :     0.000679  d :     0.026837
      dxz     :     0.010388
      dyz     :     0.006681
      dx2y2   :     0.008659
      dxy     :     0.000430
  7 B s       :     3.056093  s :     3.056093
      pz      :     0.609118  p :     2.013859
      px      :     0.463920
      py      :     0.940820
      dz2     :     0.004927  d :     0.034610
      dxz     :     0.013397
      dyz     :     0.006733
      dx2y2   :     0.008153
      dxy     :     0.001400
  8 H s       :     0.984803  s :     0.984803
  9 H s       :     0.783256  s :     0.783256
 10 Sis       :     5.660184  s :     5.660184
      pz      :     2.610953  p :     8.264407
      px      :     2.419524
      py      :     3.233930
      dz2     :     0.045859  d :     0.186940
      dxz     :     0.077174
      dyz     :     0.014260
      dx2y2   :     0.045815
      dxy     :     0.003832
 11 H s       :     0.768677  s :     0.768677
 12 Cls       :     5.964997  s :     5.964997
      pz      :     3.833560  p :    11.381609
      px      :     3.762804
      py      :     3.785245
      dz2     :     0.002231  d :     0.015745
      dxz     :     0.001880
      dyz     :     0.003718
      dx2y2   :     0.004267
      dxy     :     0.003650
 13 F s       :     3.910999  s :     3.910999
      pz      :     1.893161  p :     5.502231
      px      :     1.825533
      py      :     1.783537
      dz2     :     0.001604  d :     0.012038
      dxz     :     0.000565
      dyz     :     0.002656
      dx2y2   :     0.003456
      dxy     :     0.003756
 14 H s       :     0.892242  s :     0.892242
 15 B s       :     2.963922  s :     2.963922
      pz      :     0.779502  p :     1.804976
      px      :     0.701696
      py      :     0.323778
      dz2     :     0.011069  d :     0.048722
      dxz     :     0.007837
      dyz     :     0.008053
      dx2y2   :     0.010324
      dxy     :     0.011439


                     *******************************
                     * LOEWDIN POPULATION ANALYSIS *
                     *******************************

----------------------
LOEWDIN ATOMIC CHARGES
----------------------
   0 H :    0.084922
   1 H :    0.115145
   2 H :   -0.005341
   3 H :   -0.000982
   4 Li:    0.152049
   5 H :    0.148593
   6 C :   -0.479456
   7 B :   -0.253124
   8 H :    0.000038
   9 H :    0.136189
  10 Si:    0.201324
  11 H :    0.151618
  12 Cl:   -0.011067
  13 F :   -0.218504
  14 H :    0.033071
  15 B :   -0.054474

-------------------------------
LOEWDIN REDUCED ORBITAL CHARGES
-------------------------------
  0 H s       :     0.915078  s :     0.915078
  1 H s       :     0.884855  s :     0.884855
  2 H s       :     1.005341  s :     1.005341
  3 H s       :     1.000982  s :     1.000982
  4 Lis       :     2.240337  s :     2.240337
      pz      :     0.122061  p :     0.607614
      px      :     0.260623
      py      :     0.224930
  5 H s       :     0.851407  s :     0.851407
  6 C s       :     2.969839  s :     2.969839
      pz      :     1.152074  p :     3.461054
      px      :     1.132160
      py      :     1.176820
      dz2     :     0.001692  d :     0.048563
      dxz     :     0.017115
      dyz     :     0.013405
      dx2y2   :     0.015359
      dxy     :     0.000991
  7 B s       :     2.786013  s :     2.786013
      pz      :     0.778701  p :     2.402132
      px      :     0.604091
      py      :     1.019340
      dz2     :     0.009378  d :     0.064980
      dxz     :     0.023346
      dyz     :     0.014240
      dx2y2   :     0.015278
      dxy     :     0.002737
  8 H s       :     0.999962  s :     0.999962
  9 H s       :     0.863811  s :     0.863811
 10 Sis       :     5.301589  s :     5.301589
      pz      :     2.650220  p :     8.248437
      px      :     2.481551
      py      :     3.116666
      dz2     :     0.059272  d :     0.248651
      dxz     :     0.107127
      dyz     :     0.018522
      dx2y2   :     0.058586
      dxy     :     0.005144
 11 H s       :     0.848382  s :     0.848382
 12 Cls       :     5.753600  s :     5.753600
      pz      :     3.815419  p :    11.241799
      px      :     3.706102
      py      :     3.720278
      dz2     :     0.002162  d :     0.015668
      dxz     :     0.002001
      dyz     :     0.003642
      dx2y2   :     0.004196
      dxy     :     0.003666
 13 F s       :     3.697848  s :     3.697848
      pz      :     1.885359  p :     5.475651
      px      :     1.810290
      py      :     1.780002
      dz2     :     0.007301  d :     0.045005
      dxz     :     0.004342
      dyz     :     0.010078
      dx2y2   :     0.011793
      dxy     :     0.011491
 14 H s       :     0.966929  s :     0.966929
 15 B s       :     2.821269  s :     2.821269
      pz      :     0.852216  p :     2.123990
      px      :     0.792800
      py      :     0.478974
      dz2     :     0.023697  d :     0.109215
      dxz     :     0.014316
      dyz     :     0.019341
      dx2y2   :     0.023967
      dxy     :     0.027894


                      *****************************
                      * MAYER POPULATION ANALYSIS *
                      *****************************

  NA   - Mulliken gross atomic population
  ZA   - Total nuclear charge
  QA   - Mulliken gross atomic charge
  VA   - Mayer's total valence
  BVA  - Mayer's bonded valence
  FA   - Mayer's free valence

  ATOM       NA         ZA         QA         VA         BVA        FA
  0 H      0.9734     1.0000     0.0266     0.9451     0.9451     0.0000
  1 H      0.9355     1.0000     0.0645     0.9505     0.9505    -0.0000
  2 H      0.9888     1.0000     0.0112     0.9668     0.9668    -0.0000
  3 H      0.9644     1.0000     0.0356     0.9816     0.9816    -0.0000
  4 Li     2.3186     3.0000     0.6814     0.6127     0.6127     0.0000
  5 H      0.7757     1.0000     0.2243     0.9124     0.9124     0.0000
  6 C      6.7934     6.0000    -0.7934     3.7511     3.7511    -0.0000
  7 B      5.1046     5.0000    -0.1046     3.4674     3.4674    -0.0000
  8 H      0.9848     1.0000     0.0152     0.9747     0.9747    -0.0000
  9 H      0.7833     1.0000     0.2167     0.9108     0.9108    -0.0000
 10 Si    14.1115    14.0000    -0.1115     2.7454     2.7454    -0.0000
 11 H      0.7687     1.0000     0.2313     0.9096     0.9096    -0.0000
 12 Cl    17.3624    17.0000    -0.3624     1.0907     1.0907    -0.0000
 13 F      9.4253     9.0000    -0.4253     0.9840     0.9840    -0.0000
 14 H      0.8922     1.0000     0.1078     0.9722     0.9722     0.0000
 15 B      4.8176     5.0000     0.1824     3.2078     3.2078    -0.0000

  Mayer bond orders larger than 0.100000
B(  0-H ,  7-B ) :   0.5456 B(  0-H , 10-Si) :   0.3688 B(  1-H ,  7-B ) :   0.4694 
B(  1-H , 10-Si) :   0.4538 B(  2-H , 15-B ) :   0.9610 B(  3-H , 10-Si) :   0.9700 
B(  4-Li, 10-Si) :   0.1665 B(  4-Li, 12-Cl) :   0.2038 B(  4-Li, 13-F ) :   0.2341 
B(  5-H ,  6-C ) :   0.9198 B(  6-C ,  7-B ) :   1.0056 B(  6-C ,  9-H ) :   0.9213 
B(  6-C , 11-H ) :   0.9181 B(  7-B , 10-Si) :   0.4681 B(  7-B , 14-H ) :   0.9721 
B(  8-H , 15-B ) :   0.9698 B( 10-Si, 12-Cl) :   0.2903 B( 12-Cl, 15-B ) :   0.5496 
B( 13-F , 15-B ) :   0.7236 

-------
TIMINGS
-------

Total SCF time: 0 days 0 hours 1 min 22 sec 

Total time                  ....      82.656 sec
Sum of individual times     ....      75.715 sec  ( 91.6%)

Fock matrix formation       ....      63.570 sec  ( 76.9%)
  Split-RI-J                ....       7.287 sec  ( 11.5% of F)
  Chain of spheres X        ....      27.753 sec  ( 43.7% of F)
  XC integration            ....      14.618 sec  ( 23.0% of F)
    Basis function eval.    ....       2.828 sec  ( 19.3% of XC)
    Density eval.           ....       1.610 sec  ( 11.0% of XC)
    XC-Functional eval.     ....       1.292 sec  (  8.8% of XC)
    XC-Potential eval.      ....       0.961 sec  (  6.6% of XC)
Diagonalization             ....       0.927 sec  (  1.1%)
Density matrix formation    ....       0.159 sec  (  0.2%)
Population analysis         ....       1.896 sec  (  2.3%)
Initial guess               ....       0.013 sec  (  0.0%)
Orbital Transformation      ....       0.000 sec  (  0.0%)
Orbital Orthonormalization  ....       0.000 sec  (  0.0%)
DIIS solution               ....       1.975 sec  (  2.4%)
SOSCF solution              ....       1.421 sec  (  1.7%)
Grid generation             ....       5.755 sec  (  7.0%)

Maximum memory used throughout the entire SCF-calculation: 54.1 MB


-------------------------------------------------------------------------------
                          DFT DISPERSION CORRECTION                            
                                                                               
                              DFTD3 V3.1  Rev 1                                
                          USING Becke-Johnson damping                          
-------------------------------------------------------------------------------
The PBEh-3c composite method is recognized
Using three-body term ABC
Active option DFTDOPT                   ...         4   

molecular C6(AA) [au] = 3982.120149 


            DFT-D V3
 parameters
 s6 scaling factor         :     1.0000 
 a1 scaling factor         :     0.4860 
 s8 scaling factor         :     0.0000 
 a2 scaling factor         :     4.5000 
 Damping factor alpha9(ATM):    16.0000 
 ad hoc parameters k1-k3   :    16.0000     1.3333    -4.0000 

 Edisp/kcal,au: -4.854702935272  -0.007736460752 
 E6   /kcal   :  -4.885517310 
 E8   /kcal   :  -0.000000000 
 E6(ABC)      :   0.030814375 
 % E8         :   0.000000000 
 % E6(ABC)    :  -0.634732446 

-------------------------   ----------------
Dispersion correction           -0.007736461
-------------------------   ----------------

------------------   -----------------
gCP correction             0.021428626
------------------   -----------------

-------------------------   --------------------
FINAL SINGLE POINT ENERGY      -949.090786749367
-------------------------   --------------------


                            ***************************************
                            *     ORCA property calculations      *
                            ***************************************

                                    ---------------------
                                    Active property flags
                                    ---------------------
   (+) Dipole Moment


------------------------------------------------------------------------------
                       ORCA ELECTRIC PROPERTIES CALCULATION
------------------------------------------------------------------------------

Dipole Moment Calculation                       ... on
Quadrupole Moment Calculation                   ... off
Polarizability Calculation                      ... off
GBWName                                         ... pbeh-3c.gbw
Electron density                                ... pbeh-3c.scfp
The origin for moment calculation is the CENTER OF MASS  = (-0.663913, -0.029629  1.831466)

-------------
DIPOLE MOMENT
-------------
                                X             Y             Z
Electronic contribution:     -6.03118      -4.46531      16.24444
Nuclear contribution   :      7.29274       3.80726     -15.48083
                        -----------------------------------------
Total Dipole Moment    :      1.26156      -0.65805       0.76362
                        -----------------------------------------
Magnitude (a.u.)       :      1.61483
Magnitude (Debye)      :      4.10456



--------------------
Rotational spectrum 
--------------------
 
Rotational constants in cm-1:     0.073328     0.034631     0.028573 
Rotational constants in MHz :  2198.304589  1038.204013   856.597000 

 Dipole components along the rotational axes: 
x,y,z [a.u.] :     0.186485    -0.150148    -1.596980 
x,y,z [Debye]:     0.474007    -0.381647    -4.059201 

 

Timings for individual modules:

Sum of individual times         ...       84.598 sec (=   1.410 min)
GTO integral calculation        ...        1.335 sec (=   0.022 min)   1.6 %
SCF iterations                  ...       83.263 sec (=   1.388 min)  98.4 %
                             ****ORCA TERMINATED NORMALLY****
TOTAL RUN TIME: 0 days 0 hours 1 minutes 27 seconds 139 msec
