
                                 *****************
                                 * O   R   C   A *
                                 *****************

                                            #,                                       
                                            ###                                      
                                            ####                                     
                                            #####                                    
                                            ######                                   
                                           ########,                                 
                                     ,,################,,,,,                         
                               ,,#################################,,                 
                          ,,##########################################,,             
                       ,#########################################, ''#####,          
                    ,#############################################,,   '####,        
                  ,##################################################,,,,####,       
                ,###########''''           ''''###############################       
              ,#####''   ,,,,##########,,,,          '''####'''          '####       
            ,##' ,,,,###########################,,,                        '##       
           ' ,,###''''                  '''############,,,                           
         ,,##''                                '''############,,,,        ,,,,,,###''
      ,#''                                            '''#######################'''  
     '                                                          ''''####''''         
             ,#######,   #######,   ,#######,      ##                                
            ,#'     '#,  ##    ##  ,#'     '#,    #''#        ######   ,####,        
            ##       ##  ##   ,#'  ##            #'  '#       #        #'  '#        
            ##       ##  #######   ##           ,######,      #####,   #    #        
            '#,     ,#'  ##    ##  '#,     ,#' ,#      #,         ##   #,  ,#        
             '#######'   ##     ##  '#######'  #'      '#     #####' # '####'        



                  #######################################################
                  #                        -***-                        #
                  #          Department of theory and spectroscopy      #
                  #    Directorship and core code : Frank Neese         #
                  #        Max Planck Institute fuer Kohlenforschung    #
                  #                Kaiser Wilhelm Platz 1               #
                  #                 D-45470 Muelheim/Ruhr               #
                  #                      Germany                        #
                  #                                                     #
                  #                  All rights reserved                #
                  #                        -***-                        #
                  #######################################################


                         Program Version 5.0.3 -  RELEASE  -


 With contributions from (in alphabetic order):
   Daniel Aravena         : Magnetic Suceptibility
   Michael Atanasov       : Ab Initio Ligand Field Theory (pilot matlab implementation)
   Alexander A. Auer      : GIAO ZORA, VPT2 properties, NMR spectrum
   Ute Becker             : Parallelization
   Giovanni Bistoni       : ED, misc. LED, open-shell LED, HFLD
   Martin Brehm           : Molecular dynamics
   Dmytro Bykov           : SCF Hessian
   Vijay G. Chilkuri      : MRCI spin determinant printing, contributions to CSF-ICE
   Dipayan Datta          : RHF DLPNO-CCSD density
   Achintya Kumar Dutta   : EOM-CC, STEOM-CC
   Dmitry Ganyushin       : Spin-Orbit,Spin-Spin,Magnetic field MRCI
   Miquel Garcia          : C-PCM and meta-GGA Hessian, CC/C-PCM, Gaussian charge scheme
   Yang Guo               : DLPNO-NEVPT2, F12-NEVPT2, CIM, IAO-localization
   Andreas Hansen         : Spin unrestricted coupled pair/coupled cluster methods
   Benjamin Helmich-Paris : MC-RPA, TRAH-SCF, COSX integrals
   Lee Huntington         : MR-EOM, pCC
   Robert Izsak           : Overlap fitted RIJCOSX, COSX-SCS-MP3, EOM
   Marcus Kettner         : VPT2
   Christian Kollmar      : KDIIS, OOCD, Brueckner-CCSD(T), CCSD density, CASPT2, CASPT2-K
   Simone Kossmann        : Meta GGA functionals, TD-DFT gradient, OOMP2, MP2 Hessian
   Martin Krupicka        : Initial AUTO-CI
   Lucas Lang             : DCDCAS
   Marvin Lechner         : AUTO-CI (C++ implementation), FIC-MRCC
   Dagmar Lenk            : GEPOL surface, SMD
   Dimitrios Liakos       : Extrapolation schemes; Compound Job, initial MDCI parallelization
   Dimitrios Manganas     : Further ROCIS development; embedding schemes
   Dimitrios Pantazis     : SARC Basis sets
   Anastasios Papadopoulos: AUTO-CI, single reference methods and gradients
   Taras Petrenko         : DFT Hessian,TD-DFT gradient, ASA, ECA, R-Raman, ABS, FL, XAS/XES, NRVS
   Peter Pinski           : DLPNO-MP2, DLPNO-MP2 Gradient
   Christoph Reimann      : Effective Core Potentials
   Marius Retegan         : Local ZFS, SOC
   Christoph Riplinger    : Optimizer, TS searches, QM/MM, DLPNO-CCSD(T), (RO)-DLPNO pert. Triples
   Tobias Risthaus        : Range-separated hybrids, TD-DFT gradient, RPA, STAB
   Michael Roemelt        : Original ROCIS implementation
   Masaaki Saitow         : Open-shell DLPNO-CCSD energy and density
   Barbara Sandhoefer     : DKH picture change effects
   Avijit Sen             : IP-ROCIS
   Kantharuban Sivalingam : CASSCF convergence, NEVPT2, FIC-MRCI
   Bernardo de Souza      : ESD, SOC TD-DFT
   Georgi Stoychev        : AutoAux, RI-MP2 NMR, DLPNO-MP2 response
   Willem Van den Heuvel  : Paramagnetic NMR
   Boris Wezisla          : Elementary symmetry handling
   Frank Wennmohs         : Technical directorship


 We gratefully acknowledge several colleagues who have allowed us to
 interface, adapt or use parts of their codes:
   Stefan Grimme, W. Hujo, H. Kruse, P. Pracht,  : VdW corrections, initial TS optimization,
                  C. Bannwarth, S. Ehlert          DFT functionals, gCP, sTDA/sTD-DF
   Ed Valeev, F. Pavosevic, A. Kumar             : LibInt (2-el integral package), F12 methods
   Garnet Chan, S. Sharma, J. Yang, R. Olivares  : DMRG
   Ulf Ekstrom                                   : XCFun DFT Library
   Mihaly Kallay                                 : mrcc  (arbitrary order and MRCC methods)
   Jiri Pittner, Ondrej Demel                    : Mk-CCSD
   Frank Weinhold                                : gennbo (NPA and NBO analysis)
   Christopher J. Cramer and Donald G. Truhlar   : smd solvation model
   Lars Goerigk                                  : TD-DFT with DH, B97 family of functionals
   V. Asgeirsson, H. Jonsson                     : NEB implementation
   FAccTs GmbH                                   : IRC, NEB, NEB-TS, DLPNO-Multilevel, CI-OPT
                                                   MM, QMMM, 2- and 3-layer-ONIOM, Crystal-QMMM,
                                                   LR-CPCM, SF, NACMEs, symmetry and pop. for TD-DFT,
                                                   nearIR, NL-DFT gradient (VV10), updates on ESD,
                                                   ML-optimized integration grids
   S Lehtola, MJT Oliveira, MAL Marques          : LibXC Library
   Liviu Ungur et al                             : ANISO software


 Your calculation uses the libint2 library for the computation of 2-el integrals
 For citations please refer to: http://libint.valeyev.net

 Your ORCA version has been built with support for libXC version: 5.1.0
 For citations please refer to: https://tddft.org/programs/libxc/

 This ORCA versions uses:
   CBLAS   interface :  Fast vector & matrix operations
   LAPACKE interface :  Fast linear algebra routines
   SCALAPACK package :  Parallel linear algebra routines
   Shared memory     :  Shared parallel matrices
   BLAS/LAPACK       :  OpenBLAS 0.3.15  USE64BITINT DYNAMIC_ARCH NO_AFFINITY Haswell SINGLE_THREADED
        Core in use  :  Haswell
   Copyright (c) 2011-2014, The OpenBLAS Project




***************************************
The coordinates will be read from file: E13.xyz
***************************************


Your calculation utilizes the geometrical counterpoise correction gCP
Please cite in your paper:
H.Kruse, S. Grimme J.Chem.Phys., 136, (2012), 154101 
   

Your calculation utilizes the atom-pairwise dispersion correction
with the Becke-Johnson damping scheme (D3BJ)
Cite in your paper:
S.Grimme, S.Ehrlich, L.Goerigk, J Comput Chem, (2011), 32, 1456–1465 
S.Grimme, J.Antony, S.Ehrlich and H.Krieg, J.Chem.Phys., 132, (2010), 154104 
   

Your calculation employs the composite approach PBEh-3c.
Please cite in your paper:
S. Grimme, J. G. Brandenburg, C. Bannwarth, A. Hansen J.Chem.Phys., 143, (2015), 054107 
   

================================================================================

----- Orbital basis set information -----
Your calculation utilizes the basis: def2-mSVP

----- AuxJ basis set information -----
Your calculation utilizes the auxiliary basis: def2/J
   F. Weigend, Phys. Chem. Chem. Phys. 8, 1057 (2006).

================================================================================
                                        WARNINGS
                       Please study these warnings very carefully!
================================================================================


INFO   : the flag for use of the SHARK integral package has been found!

================================================================================
                                       INPUT FILE
================================================================================
NAME = pbeh-3c.inp
|  1> ! PBEh-3c def2/J TightSCF DefGrid3
|  2> 
|  3> %maxcore 60000
|  4> 
|  5> %pal
|  6> nprocs 4
|  7> end
|  8> 
|  9> *xyzfile 0 1 E13.xyz
| 10> 
| 11>                          ****END OF INPUT****
================================================================================

                       ****************************
                       * Single Point Calculation *
                       ****************************

---------------------------------
CARTESIAN COORDINATES (ANGSTROEM)
---------------------------------
  C      0.000000    0.000000   -0.488521
  C      0.000000    0.000000    0.966972
  N      0.000000    0.000000    2.117957
  H     -0.511937   -0.886702   -0.865469
  H     -0.511937    0.886702   -0.865469
  H      1.023875    0.000000   -0.865469

----------------------------
CARTESIAN COORDINATES (A.U.)
----------------------------
  NO LB      ZA    FRAG     MASS         X           Y           Z
   0 C     6.0000    0    12.011    0.000000    0.000000   -0.923171
   1 C     6.0000    0    12.011    0.000000    0.000000    1.827313
   2 N     7.0000    0    14.007    0.000000    0.000000    4.002359
   3 H     1.0000    0     1.008   -0.967421   -1.675623   -1.635500
   4 H     1.0000    0     1.008   -0.967421    1.675623   -1.635500
   5 H     1.0000    0     1.008    1.934843    0.000000   -1.635500

--------------------------------
INTERNAL COORDINATES (ANGSTROEM)
--------------------------------
 C      0   0   0     0.000000000000     0.00000000     0.00000000
 C      1   0   0     1.455493500000     0.00000000     0.00000000
 N      2   1   0     1.150984600000   179.99999852     0.00000000
 H      1   2   3     1.091058958001   110.21161719     0.00000000
 H      1   2   3     1.091058958001   110.21161719     0.00000000
 H      1   2   3     1.091058947513   110.21161739     0.00000000

---------------------------
INTERNAL COORDINATES (A.U.)
---------------------------
 C      0   0   0     0.000000000000     0.00000000     0.00000000
 C      1   0   0     2.750484104703     0.00000000     0.00000000
 N      2   1   0     2.175045678361   179.99999852     0.00000000
 H      1   2   3     2.061802626583   110.21161719     0.00000000
 H      1   2   3     2.061802626583   110.21161719     0.00000000
 H      1   2   3     2.061802606764   110.21161739     0.00000000

---------------------
BASIS SET INFORMATION
---------------------
There are 3 groups of distinct atoms

 Group   1 Type C   : 8s4p1d contracted to 4s2p1d pattern {5111/31/1}
 Group   2 Type N   : 8s4p1d contracted to 4s2p1d pattern {5111/31/1}
 Group   3 Type H   : 4s contracted to 2s pattern {31}

Atom   0C    basis set group =>   1
Atom   1C    basis set group =>   1
Atom   2N    basis set group =>   2
Atom   3H    basis set group =>   3
Atom   4H    basis set group =>   3
Atom   5H    basis set group =>   3
---------------------------------
AUXILIARY/J BASIS SET INFORMATION
---------------------------------
There are 3 groups of distinct atoms

 Group   1 Type C   : 12s5p4d2f1g contracted to 6s4p3d1f1g pattern {711111/2111/211/2/1}
 Group   2 Type N   : 12s5p4d2f1g contracted to 6s4p3d1f1g pattern {711111/2111/211/2/1}
 Group   3 Type H   : 5s2p1d contracted to 3s1p1d pattern {311/2/1}

Atom   0C    basis set group =>   1
Atom   1C    basis set group =>   1
Atom   2N    basis set group =>   2
Atom   3H    basis set group =>   3
Atom   4H    basis set group =>   3
Atom   5H    basis set group =>   3


           ************************************************************
           *        Program running with 4 parallel MPI-processes     *
           *              working on a common directory               *
           ************************************************************
------------------------------------------------------------------------------
                           ORCA GTO INTEGRAL CALCULATION
                           -- RI-GTO INTEGRALS CHOSEN --
------------------------------------------------------------------------------
------------------------------------------------------------------------------
                   ___                                                        
                  /   \      - P O W E R E D   B Y -                         
                 /     \                                                     
                 |  |  |   _    _      __       _____    __    __             
                 |  |  |  | |  | |    /  \     |  _  \  |  |  /  |          
                  \  \/   | |  | |   /    \    | | | |  |  | /  /          
                 / \  \   | |__| |  /  /\  \   | |_| |  |  |/  /          
                |  |  |   |  __  | /  /__\  \  |    /   |      \           
                |  |  |   | |  | | |   __   |  |    \   |  |\   \          
                \     /   | |  | | |  |  |  |  | |\  \  |  | \   \       
                 \___/    |_|  |_| |__|  |__|  |_| \__\ |__|  \__/        
                                                                              
                      - O R C A' S   B I G   F R I E N D -                    
                                      &                                       
                       - I N T E G R A L  F E E D E R -                       
                                                                              
 v1 FN, 2020, v2 2021                                                         
------------------------------------------------------------------------------


Reading SHARK input file pbeh-3c.SHARKINP.tmp ... ok
----------------------
SHARK INTEGRAL PACKAGE
----------------------

Number of atoms                             ...      6
Number of basis functions                   ...     51
Number of shells                            ...     27
Maximum angular momentum                    ...      2
Integral batch strategy                     ... SHARK/LIBINT Hybrid
RI-J (if used) integral strategy            ... SPLIT-RIJ (Revised 2003 algorithm where possible)
Printlevel                                  ...      1
Contraction scheme used                     ... SEGMENTED contraction
Coulomb Range Separation                    ... NOT USED
Exchange Range Separation                   ... NOT USED
Finite Nucleus Model                        ... NOT USED
Auxiliary Coulomb fitting basis             ... AVAILABLE
   # of basis functions in Aux-J            ...    180
   # of shells in Aux-J                     ...     60
   Maximum angular momentum in Aux-J        ...      4
Auxiliary J/K fitting basis                 ... NOT available
Auxiliary Correlation fitting basis         ... NOT available
Auxiliary 'external' fitting basis          ... NOT available
Integral threshold                          ...     2.500000e-11
Primitive cut-off                           ...     2.500000e-12
Primitive pair pre-selection threshold      ...     2.500000e-12

Calculating pre-screening integrals         ... done (  0.1 sec) Dimension = 27
Organizing shell pair data                  ... done (  0.3 sec)
Shell pair information
Total number of shell pairs                 ...       378
Shell pairs after pre-screening             ...       372
Total number of primitive shell pairs       ...      1374
Primitive shell pairs kept                  ...      1125
          la=0 lb=0:    165 shell pairs
          la=1 lb=0:    108 shell pairs
          la=1 lb=1:     21 shell pairs
          la=2 lb=0:     54 shell pairs
          la=2 lb=1:     18 shell pairs
          la=2 lb=2:      6 shell pairs

Calculating one electron integrals          ... done (  0.0 sec)
Calculating RI/J V-Matrix + Cholesky decomp.... done (  0.1 sec)
Calculating Nuclear repulsion               ... done (  0.0 sec) ENN=     58.611858683877 Eh

SHARK setup successfully completed in   1.0 seconds

Maximum memory used throughout the entire GTOINT-calculation: 9.1 MB


           ************************************************************
           *        Program running with 4 parallel MPI-processes     *
           *              working on a common directory               *
           ************************************************************
-------------------------------------------------------------------------------
                                 ORCA SCF
-------------------------------------------------------------------------------

------------
SCF SETTINGS
------------
Hamiltonian:
 Density Functional     Method          .... DFT(GTOs)
 Exchange Functional    Exchange        .... PBE
   PBE kappa parameter   XKappa         ....  1.024500
   PBE mue parameter    XMuePBE         ....  0.123457
 Correlation Functional Correlation     .... PBE
   PBE beta parameter  CBetaPBE         ....  0.030000
 LDA part of GGA corr.  LDAOpt          .... PW91-LDA
 Gradients option       PostSCFGGA      .... off
 Hybrid DFT is turned on
   Fraction HF Exchange ScalHFX         ....  0.420000
   Scaling of DF-GGA-X  ScalDFX         ....  0.580000
   Scaling of DF-GGA-C  ScalDFC         ....  1.000000
   Scaling of DF-LDA-C  ScalLDAC        ....  1.000000
   Perturbative correction              ....  0.000000
   Density functional embedding theory  .... OFF
 RI-approximation to the Coulomb term is turned on
   Number of AuxJ basis functions       .... 180
   RIJ-ON(X) (HFX calculated with O(N)) .... on
   Number of AuxJ basis functions       .... 180
   RIJ-COSX (HFX calculated with COS-X)).... on


General Settings:
 Integral files         IntName         .... pbeh-3c
 Hartree-Fock type      HFTyp           .... RHF
 Total Charge           Charge          ....    0
 Multiplicity           Mult            ....    1
 Number of Electrons    NEL             ....   22
 Basis Dimension        Dim             ....   51
 Nuclear Repulsion      ENuc            ....     58.6118586839 Eh

Convergence Acceleration:
 DIIS                   CNVDIIS         .... on
   Start iteration      DIISMaxIt       ....    12
   Startup error        DIISStart       ....  0.200000
   # of expansion vecs  DIISMaxEq       ....     5
   Bias factor          DIISBfac        ....   1.050
   Max. coefficient     DIISMaxC        ....  10.000
 Trust-Rad. Augm. Hess. CNVTRAH         .... auto
   Auto Start mean grad. ratio tolernc. ....  1.125000
   Auto Start start iteration           ....    20
   Auto Start num. interpolation iter.  ....    10
   Max. Number of Micro iterations      ....    16
   Max. Number of Macro iterations      .... Maxiter - #DIIS iter
   Number of Davidson start vectors     ....     2
   Converg. threshold I  (grad. norm)   ....   1.000e-05
   Converg. threshold II (energy diff.) ....   1.000e-08
   Grad. Scal. Fac. for Micro threshold ....   0.100
   Minimum threshold for Micro iter.    ....   0.010
   NR start threshold (gradient norm)   ....   0.001
   Initial trust radius                 ....   0.400
   Minimum AH scaling param. (alpha)    ....   1.000
   Maximum AH scaling param. (alpha)    .... 1000.000
   Orbital update algorithm             .... Taylor
   White noise on init. David. guess    .... on
   Maximum white noise                  ....   0.010
   Quad. conv. algorithm                .... NR
   COSX micro iterations for RIJONX calc.... off
 SOSCF                  CNVSOSCF        .... on
   Start iteration      SOSCFMaxIt      ....   150
   Startup grad/error   SOSCFStart      ....  0.003300
 Level Shifting         CNVShift        .... on
   Level shift para.    LevelShift      ....    0.2500
   Turn off err/grad.   ShiftErr        ....    0.0010
 Zerner damping         CNVZerner       .... off
 Static damping         CNVDamp         .... on
   Fraction old density DampFac         ....    0.7000
   Max. Damping (<1)    DampMax         ....    0.9800
   Min. Damping (>=0)   DampMin         ....    0.0000
   Turn off err/grad.   DampErr         ....    0.1000
 Fernandez-Rico         CNVRico         .... off

SCF Procedure:
 Maximum # iterations   MaxIter         ....   125
 SCF integral mode      SCFMode         .... Direct
   Integral package                     .... SHARK and LIBINT hybrid scheme
 Reset frequency        DirectResetFreq ....    20
 Integral Threshold     Thresh          ....  2.500e-11 Eh
 Primitive CutOff       TCut            ....  2.500e-12 Eh

Convergence Tolerance:
 Convergence Check Mode ConvCheckMode   .... Total+1el-Energy
 Convergence forced     ConvForced      .... 0
 Energy Change          TolE            ....  1.000e-08 Eh
 1-El. energy change                    ....  1.000e-05 Eh
 Orbital Gradient       TolG            ....  1.000e-05
 Orbital Rotation angle TolX            ....  1.000e-05
 DIIS Error             TolErr          ....  5.000e-07


Diagonalization of the overlap matrix:
Smallest eigenvalue                        ... 5.693e-03
Time for diagonalization                   ...    0.001 sec
Threshold for overlap eigenvalues          ... 1.000e-08
Number of eigenvalues below threshold      ... 0
Time for construction of square roots      ...    0.107 sec
Total time needed                          ...    0.114 sec

--------------------------------
INITIAL GUESS: MINIMAL BASIS EHT
--------------------------------
The minimal basis has 18 functions
EHT matrix was diagonalized
Basis set overlap was calculated now projecting the orbitals
Using GuessMode=FMatrix for the initial guess
C*T matrix was formed
Effective Fockian was calculated
Effective Fockian was diagonalized
Initial density was built
                      ------------------
                      INITIAL GUESS DONE
                      ------------------
-------------------
DFT GRID GENERATION
-------------------

General Integration Accuracy     IntAcc      ... 4.959
Radial Grid Type                 RadialGrid  ... OptM3 with GC (2021)
Angular Grid (max. ang.)         AngularGrid ... 6 (Lebedev-590)
Angular grid pruning method      GridPruning ... 4 (adaptive)
Weight generation scheme         WeightScheme... Becke
Basis function cutoff            BFCut       ... 1.0000e-11
Integration weight cutoff        WCut        ... 1.0000e-14
Angular grids for H and He will be reduced by one unit
Partially contracted basis set               ... off
Rotationally invariant grid construction     ... off

Total number of grid points                  ...    70248
Total number of batches                      ...     1101
Average number of points per batch           ...       63
Average number of grid points per atom       ...    11708
Time for grid setup =    1.128 sec

--------------------
COSX GRID GENERATION
--------------------

GRIDX 1
-------
General Integration Accuracy     IntAcc      ... 4.020
Radial Grid Type                 RadialGrid  ... OptM3 with GC (2021)
Angular Grid (max. ang.)         AngularGrid ... 2 (Lebedev-110)
Angular grid pruning method      GridPruning ... 4 (adaptive)
Weight generation scheme         WeightScheme... Becke
Basis function cutoff            BFCut       ... 1.0000e-11
Integration weight cutoff        WCut        ... 1.0000e-14
Angular grids for H and He will be reduced by one unit
Partially contracted basis set               ... on
Rotationally invariant grid construction     ... off

Total number of grid points                  ...     7953
Total number of batches                      ...      129
Average number of points per batch           ...       61
Average number of grid points per atom       ...     1326
UseSFitting                                  ... on

GRIDX 2
-------
General Integration Accuracy     IntAcc      ... 4.338
Radial Grid Type                 RadialGrid  ... OptM3 with GC (2021)
Angular Grid (max. ang.)         AngularGrid ... 3 (Lebedev-194)
Angular grid pruning method      GridPruning ... 4 (adaptive)
Weight generation scheme         WeightScheme... Becke
Basis function cutoff            BFCut       ... 1.0000e-11
Integration weight cutoff        WCut        ... 1.0000e-14
Angular grids for H and He will be reduced by one unit
Partially contracted basis set               ... on
Rotationally invariant grid construction     ... off

Total number of grid points                  ...    17580
Total number of batches                      ...      278
Average number of points per batch           ...       63
Average number of grid points per atom       ...     2930
UseSFitting                                  ... on

GRIDX 3
-------
General Integration Accuracy     IntAcc      ... 4.871
Radial Grid Type                 RadialGrid  ... OptM3 with GC (2021)
Angular Grid (max. ang.)         AngularGrid ... 4 (Lebedev-302)
Angular grid pruning method      GridPruning ... 4 (adaptive)
Weight generation scheme         WeightScheme... Becke
Basis function cutoff            BFCut       ... 1.0000e-11
Integration weight cutoff        WCut        ... 1.0000e-14
Angular grids for H and He will be reduced by one unit
Partially contracted basis set               ... on
Rotationally invariant grid construction     ... off

Total number of grid points                  ...    33901
Total number of batches                      ...      533
Average number of points per batch           ...       63
Average number of grid points per atom       ...     5650
UseSFitting                                  ... on

Time for X-Grid setup             =    1.473 sec

--------------
SCF ITERATIONS
--------------
ITER       Energy         Delta-E        Max-DP      RMS-DP      [F,P]     Damp
               ***  Starting incremental Fock matrix formation  ***
  0   -131.6713014323   0.000000000000 0.29938381  0.01681217  0.6410433 0.7000
  1   -131.9960080575  -0.324706625151 0.16380832  0.00801474  0.4241202 0.7000
  2   -132.1307569671  -0.134748909555 0.07751247  0.00396492  0.2956057 0.7000
  3   -132.2245532007  -0.093796233603 0.06457127  0.00285875  0.2058140 0.7000
                               ***Turning on DIIS***
  4   -132.2939957230  -0.069442522350 0.05005826  0.00213892  0.1439395 0.7000
  5   -132.3426734718  -0.048677748777 0.03517966  0.00153122  0.1013138 0.7000
  6   -132.3767043320  -0.034030860182 0.08745496  0.00383767  0.0707484 0.0000
                      *** Initiating the SOSCF procedure ***
                           *** Shutting down DIIS ***
                      *** Re-Reading the Fockian *** 
                      *** Removing any level shift *** 
ITER      Energy       Delta-E        Grad      Rot      Max-DP    RMS-DP
  7   -132.45696255  -0.0802582174  0.001494  0.001494  0.002967  0.000258
               *** Restarting incremental Fock matrix formation ***
  8   -132.45697863  -0.0000160796  0.000892  0.001969  0.002676  0.000140
  9   -132.45697127   0.0000073607  0.001466  0.001095  0.001365  0.000094
 10   -132.45698482  -0.0000135482  0.000041  0.000064  0.000127  0.000008
 11   -132.45698484  -0.0000000192  0.000021  0.000018  0.000045  0.000002
                  ***Gradient check signals convergence***
              ***Rediagonalizing the Fockian in SOSCF/NRSCF***

               *****************************************************
               *                     SUCCESS                       *
               *           SCF CONVERGED AFTER  12 CYCLES          *
               *****************************************************

Old exchange energy                            =     -7.542182834 Eh
New exchange energy                            =     -7.542182809 Eh
Exchange energy change after final integration =      0.000000025 Eh
Total energy after final integration           =   -132.456984816 Eh
Final COS-X integration done in                =     0.433 sec

----------------
TOTAL SCF ENERGY
----------------

Total Energy       :         -132.45698482 Eh           -3604.33780 eV

Components:
Nuclear Repulsion  :           58.61185868 Eh            1594.90976 eV
Electronic Energy  :         -191.06884350 Eh           -5199.24756 eV
One Electron Energy:         -293.73105147 Eh           -7992.82826 eV
Two Electron Energy:          102.66220797 Eh            2793.58070 eV
Max COSX asymmetry :            0.00000095 Eh               0.00003 eV

Virial components:
Potential Energy   :         -263.88786612 Eh           -7180.75390 eV
Kinetic Energy     :          131.43088130 Eh            3576.41610 eV
Virial Ratio       :            2.00780717


DFT components:
N(Alpha)           :       10.999999945291 electrons
N(Beta)            :       10.999999945291 electrons
N(Total)           :       21.999999890582 electrons
E(X)               :      -10.024299528548 Eh       
E(C)               :       -0.934813673248 Eh       
E(XC)              :      -10.959113201796 Eh       
DFET-embed. en.    :        0.000000000000 Eh       

---------------
SCF CONVERGENCE
---------------

  Last Energy change         ...   -5.6491e-09  Tolerance :   1.0000e-08
  Last MAX-Density change    ...    8.8818e-16  Tolerance :   1.0000e-07
  Last RMS-Density change    ...    4.6181e-17  Tolerance :   5.0000e-09
  Last Orbital Gradient      ...    2.4042e-06  Tolerance :   1.0000e-05
  Last Orbital Rotation      ...    4.0809e-06  Tolerance :   1.0000e-05

             **** THE GBW FILE WAS UPDATED (pbeh-3c.gbw) ****
             **** DENSITY pbeh-3c.scfp WAS UPDATED ****
             **** ENERGY FILE WAS UPDATED (pbeh-3c.en.tmp) ****
             **** THE GBW FILE WAS UPDATED (pbeh-3c.gbw) ****
             **** DENSITY pbeh-3c.scfp WAS UPDATED ****
----------------
ORBITAL ENERGIES
----------------

  NO   OCC          E(Eh)            E(eV) 
   0   2.0000     -14.642110      -398.4321 
   1   2.0000     -10.492069      -285.5037 
   2   2.0000     -10.491821      -285.4970 
   3   2.0000      -1.010825       -27.5060 
   4   2.0000      -0.867180       -23.5972 
   5   2.0000      -0.582574       -15.8526 
   6   2.0000      -0.526115       -14.3163 
   7   2.0000      -0.526115       -14.3163 
   8   2.0000      -0.425994       -11.5919 
   9   2.0000      -0.382938       -10.4203 
  10   2.0000      -0.382938       -10.4203 
  11   0.0000       0.069992         1.9046 
  12   0.0000       0.069992         1.9046 
  13   0.0000       0.135580         3.6893 
  14   0.0000       0.210750         5.7348 
  15   0.0000       0.212695         5.7877 
  16   0.0000       0.212696         5.7878 
  17   0.0000       0.297659         8.0997 
  18   0.0000       0.503087        13.6897 
  19   0.0000       0.503099        13.6900 
  20   0.0000       0.553676        15.0663 
  21   0.0000       0.587370        15.9832 
  22   0.0000       0.587372        15.9832 
  23   0.0000       0.727528        19.7970 
  24   0.0000       0.816127        22.2080 
  25   0.0000       0.921304        25.0699 
  26   0.0000       0.921304        25.0700 
  27   0.0000       0.966152        26.2903 
  28   0.0000       0.966152        26.2903 
  29   0.0000       0.988179        26.8897 
  30   0.0000       1.114242        30.3201 
  31   0.0000       1.380876        37.5756 
  32   0.0000       1.463708        39.8295 
  33   0.0000       1.463708        39.8295 
  34   0.0000       1.568993        42.6945 
  35   0.0000       1.568993        42.6945 
  36   0.0000       1.693878        46.0928 
  37   0.0000       1.948241        53.0143 
  38   0.0000       1.948241        53.0143 
  39   0.0000       2.029927        55.2371 
  40   0.0000       2.029927        55.2371 
  41   0.0000       2.198729        59.8305 
  42   0.0000       2.273457        61.8639 
  43   0.0000       2.273458        61.8639 
  44   0.0000       2.776325        75.5477 
  45   0.0000       2.841885        77.3316 
  46   0.0000       2.841886        77.3316 
  47   0.0000       3.301756        89.8454 
  48   0.0000      13.512530       367.6946 
  49   0.0000      14.137530       384.7017 
  50   0.0000      19.509385       530.8773 

                    ********************************
                    * MULLIKEN POPULATION ANALYSIS *
                    ********************************

-----------------------
MULLIKEN ATOMIC CHARGES
-----------------------
   0 C :   -0.723881
   1 C :    0.087789
   2 N :   -0.192414
   3 H :    0.276171
   4 H :    0.276171
   5 H :    0.276165
Sum of atomic charges:    0.0000000

--------------------------------
MULLIKEN REDUCED ORBITAL CHARGES
--------------------------------
  0 C s       :     3.404197  s :     3.404197
      pz      :     0.913762  p :     3.282513
      px      :     1.184371
      py      :     1.184380
      dz2     :     0.011682  d :     0.037170
      dxz     :     0.006021
      dyz     :     0.006021
      dx2y2   :     0.006723
      dxy     :     0.006723
  1 C s       :     3.072652  s :     3.072652
      pz      :     0.940996  p :     2.791127
      px      :     0.925068
      py      :     0.925063
      dz2     :     0.014626  d :     0.048433
      dxz     :     0.016878
      dyz     :     0.016878
      dx2y2   :     0.000025
      dxy     :     0.000025
  2 N s       :     3.630589  s :     3.630589
      pz      :     1.396980  p :     3.517788
      px      :     1.060402
      py      :     1.060406
      dz2     :     0.012852  d :     0.044037
      dxz     :     0.015593
      dyz     :     0.015593
      dx2y2   :    -0.000000
      dxy     :    -0.000000
  3 H s       :     0.723829  s :     0.723829
  4 H s       :     0.723829  s :     0.723829
  5 H s       :     0.723835  s :     0.723835


                     *******************************
                     * LOEWDIN POPULATION ANALYSIS *
                     *******************************

----------------------
LOEWDIN ATOMIC CHARGES
----------------------
   0 C :   -0.380937
   1 C :   -0.030757
   2 N :   -0.092047
   3 H :    0.167914
   4 H :    0.167914
   5 H :    0.167913

-------------------------------
LOEWDIN REDUCED ORBITAL CHARGES
-------------------------------
  0 C s       :     2.946963  s :     2.946963
      pz      :     1.057734  p :     3.362429
      px      :     1.152346
      py      :     1.152349
      dz2     :     0.025506  d :     0.071545
      dxz     :     0.012775
      dyz     :     0.012775
      dx2y2   :     0.010244
      dxy     :     0.010244
  1 C s       :     2.922015  s :     2.922015
      pz      :     1.181846  p :     3.003013
      px      :     0.910584
      py      :     0.910582
      dz2     :     0.037323  d :     0.105729
      dxz     :     0.034178
      dyz     :     0.034178
      dx2y2   :     0.000026
      dxy     :     0.000026
  2 N s       :     3.392482  s :     3.392482
      pz      :     1.490260  p :     3.626287
      px      :     1.068012
      py      :     1.068014
      dz2     :     0.028639  d :     0.073278
      dxz     :     0.022319
      dyz     :     0.022319
      dx2y2   :     0.000000
      dxy     :     0.000000
  3 H s       :     0.832086  s :     0.832086
  4 H s       :     0.832086  s :     0.832086
  5 H s       :     0.832087  s :     0.832087


                      *****************************
                      * MAYER POPULATION ANALYSIS *
                      *****************************

  NA   - Mulliken gross atomic population
  ZA   - Total nuclear charge
  QA   - Mulliken gross atomic charge
  VA   - Mayer's total valence
  BVA  - Mayer's bonded valence
  FA   - Mayer's free valence

  ATOM       NA         ZA         QA         VA         BVA        FA
  0 C      6.7239     6.0000    -0.7239     3.6491     3.6491    -0.0000
  1 C      5.9122     6.0000     0.0878     4.1088     4.1088    -0.0000
  2 N      7.1924     7.0000    -0.1924     3.2222     3.2222     0.0000
  3 H      0.7238     1.0000     0.2762     0.8866     0.8866    -0.0000
  4 H      0.7238     1.0000     0.2762     0.8866     0.8866    -0.0000
  5 H      0.7238     1.0000     0.2762     0.8866     0.8866     0.0000

  Mayer bond orders larger than 0.100000
B(  0-C ,  1-C ) :   0.9669 B(  0-C ,  3-H ) :   0.8970 B(  0-C ,  4-H ) :   0.8970 
B(  0-C ,  5-H ) :   0.8970 B(  1-C ,  2-N ) :   3.1816 

-------
TIMINGS
-------

Total SCF time: 0 days 0 hours 0 min 26 sec 

Total time                  ....      26.970 sec
Sum of individual times     ....      23.231 sec  ( 86.1%)

Fock matrix formation       ....      19.528 sec  ( 72.4%)
  Split-RI-J                ....       2.354 sec  ( 12.1% of F)
  Chain of spheres X        ....       4.277 sec  ( 21.9% of F)
  XC integration            ....       6.470 sec  ( 33.1% of F)
    Basis function eval.    ....       0.559 sec  (  8.6% of XC)
    Density eval.           ....       0.573 sec  (  8.9% of XC)
    XC-Functional eval.     ....       0.530 sec  (  8.2% of XC)
    XC-Potential eval.      ....       0.196 sec  (  3.0% of XC)
Diagonalization             ....       0.090 sec  (  0.3%)
Density matrix formation    ....       0.034 sec  (  0.1%)
Population analysis         ....       0.250 sec  (  0.9%)
Initial guess               ....       0.002 sec  (  0.0%)
Orbital Transformation      ....       0.000 sec  (  0.0%)
Orbital Orthonormalization  ....       0.000 sec  (  0.0%)
DIIS solution               ....       0.333 sec  (  1.2%)
SOSCF solution              ....       0.393 sec  (  1.5%)
Grid generation             ....       2.601 sec  (  9.6%)

Maximum memory used throughout the entire SCF-calculation: 45.5 MB


-------------------------------------------------------------------------------
                          DFT DISPERSION CORRECTION                            
                                                                               
                              DFTD3 V3.1  Rev 1                                
                          USING Becke-Johnson damping                          
-------------------------------------------------------------------------------
The PBEh-3c composite method is recognized
Using three-body term ABC
Active option DFTDOPT                   ...         4   

molecular C6(AA) [au] = 386.335405 


            DFT-D V3
 parameters
 s6 scaling factor         :     1.0000 
 a1 scaling factor         :     0.4860 
 s8 scaling factor         :     0.0000 
 a2 scaling factor         :     4.5000 
 Damping factor alpha9(ATM):    16.0000 
 ad hoc parameters k1-k3   :    16.0000     1.3333    -4.0000 

 Edisp/kcal,au: -0.962652542346  -0.001534084312 
 E6   /kcal   :  -0.962891837 
 E8   /kcal   :  -0.000000000 
 E6(ABC)      :   0.000239295 
 % E8         :   0.000000000 
 % E6(ABC)    :  -0.024857857 

-------------------------   ----------------
Dispersion correction           -0.001534084
-------------------------   ----------------

------------------   -----------------
gCP correction             0.004579893
------------------   -----------------

-------------------------   --------------------
FINAL SINGLE POINT ENERGY      -132.453939008093
-------------------------   --------------------


                            ***************************************
                            *     ORCA property calculations      *
                            ***************************************

                                    ---------------------
                                    Active property flags
                                    ---------------------
   (+) Dipole Moment


------------------------------------------------------------------------------
                       ORCA ELECTRIC PROPERTIES CALCULATION
------------------------------------------------------------------------------

Dipole Moment Calculation                       ... on
Quadrupole Moment Calculation                   ... off
Polarizability Calculation                      ... off
GBWName                                         ... pbeh-3c.gbw
Electron density                                ... pbeh-3c.scfp
The origin for moment calculation is the CENTER OF MASS  = ( 0.000000,  0.000000  1.509632)

-------------
DIPOLE MOMENT
-------------
                                X             Y             Z
Electronic contribution:     -0.00000       0.00000       3.14405
Nuclear contribution   :      0.00000       0.00000      -4.67705
                        -----------------------------------------
Total Dipole Moment    :     -0.00000       0.00000      -1.53300
                        -----------------------------------------
Magnitude (a.u.)       :      1.53300
Magnitude (Debye)      :      3.89658



--------------------
Rotational spectrum 
--------------------
 
Rotational constants in cm-1:     5.317670     0.308862     0.308862 
Rotational constants in MHz : 159419.742235  9259.457202  9259.457194 

 Dipole components along the rotational axes: 
x,y,z [a.u.] :    -1.533000     0.000000    -0.000004 
x,y,z [Debye]:    -3.896576     0.000000    -0.000010 

 

Timings for individual modules:

Sum of individual times         ...       28.996 sec (=   0.483 min)
GTO integral calculation        ...        1.419 sec (=   0.024 min)   4.9 %
SCF iterations                  ...       27.577 sec (=   0.460 min)  95.1 %
                             ****ORCA TERMINATED NORMALLY****
TOTAL RUN TIME: 0 days 0 hours 0 minutes 35 seconds 440 msec
