
                                 *****************
                                 * O   R   C   A *
                                 *****************

                                            #,                                       
                                            ###                                      
                                            ####                                     
                                            #####                                    
                                            ######                                   
                                           ########,                                 
                                     ,,################,,,,,                         
                               ,,#################################,,                 
                          ,,##########################################,,             
                       ,#########################################, ''#####,          
                    ,#############################################,,   '####,        
                  ,##################################################,,,,####,       
                ,###########''''           ''''###############################       
              ,#####''   ,,,,##########,,,,          '''####'''          '####       
            ,##' ,,,,###########################,,,                        '##       
           ' ,,###''''                  '''############,,,                           
         ,,##''                                '''############,,,,        ,,,,,,###''
      ,#''                                            '''#######################'''  
     '                                                          ''''####''''         
             ,#######,   #######,   ,#######,      ##                                
            ,#'     '#,  ##    ##  ,#'     '#,    #''#        ######   ,####,        
            ##       ##  ##   ,#'  ##            #'  '#       #        #'  '#        
            ##       ##  #######   ##           ,######,      #####,   #    #        
            '#,     ,#'  ##    ##  '#,     ,#' ,#      #,         ##   #,  ,#        
             '#######'   ##     ##  '#######'  #'      '#     #####' # '####'        



                  #######################################################
                  #                        -***-                        #
                  #          Department of theory and spectroscopy      #
                  #    Directorship and core code : Frank Neese         #
                  #        Max Planck Institute fuer Kohlenforschung    #
                  #                Kaiser Wilhelm Platz 1               #
                  #                 D-45470 Muelheim/Ruhr               #
                  #                      Germany                        #
                  #                                                     #
                  #                  All rights reserved                #
                  #                        -***-                        #
                  #######################################################


                         Program Version 5.0.3 -  RELEASE  -


 With contributions from (in alphabetic order):
   Daniel Aravena         : Magnetic Suceptibility
   Michael Atanasov       : Ab Initio Ligand Field Theory (pilot matlab implementation)
   Alexander A. Auer      : GIAO ZORA, VPT2 properties, NMR spectrum
   Ute Becker             : Parallelization
   Giovanni Bistoni       : ED, misc. LED, open-shell LED, HFLD
   Martin Brehm           : Molecular dynamics
   Dmytro Bykov           : SCF Hessian
   Vijay G. Chilkuri      : MRCI spin determinant printing, contributions to CSF-ICE
   Dipayan Datta          : RHF DLPNO-CCSD density
   Achintya Kumar Dutta   : EOM-CC, STEOM-CC
   Dmitry Ganyushin       : Spin-Orbit,Spin-Spin,Magnetic field MRCI
   Miquel Garcia          : C-PCM and meta-GGA Hessian, CC/C-PCM, Gaussian charge scheme
   Yang Guo               : DLPNO-NEVPT2, F12-NEVPT2, CIM, IAO-localization
   Andreas Hansen         : Spin unrestricted coupled pair/coupled cluster methods
   Benjamin Helmich-Paris : MC-RPA, TRAH-SCF, COSX integrals
   Lee Huntington         : MR-EOM, pCC
   Robert Izsak           : Overlap fitted RIJCOSX, COSX-SCS-MP3, EOM
   Marcus Kettner         : VPT2
   Christian Kollmar      : KDIIS, OOCD, Brueckner-CCSD(T), CCSD density, CASPT2, CASPT2-K
   Simone Kossmann        : Meta GGA functionals, TD-DFT gradient, OOMP2, MP2 Hessian
   Martin Krupicka        : Initial AUTO-CI
   Lucas Lang             : DCDCAS
   Marvin Lechner         : AUTO-CI (C++ implementation), FIC-MRCC
   Dagmar Lenk            : GEPOL surface, SMD
   Dimitrios Liakos       : Extrapolation schemes; Compound Job, initial MDCI parallelization
   Dimitrios Manganas     : Further ROCIS development; embedding schemes
   Dimitrios Pantazis     : SARC Basis sets
   Anastasios Papadopoulos: AUTO-CI, single reference methods and gradients
   Taras Petrenko         : DFT Hessian,TD-DFT gradient, ASA, ECA, R-Raman, ABS, FL, XAS/XES, NRVS
   Peter Pinski           : DLPNO-MP2, DLPNO-MP2 Gradient
   Christoph Reimann      : Effective Core Potentials
   Marius Retegan         : Local ZFS, SOC
   Christoph Riplinger    : Optimizer, TS searches, QM/MM, DLPNO-CCSD(T), (RO)-DLPNO pert. Triples
   Tobias Risthaus        : Range-separated hybrids, TD-DFT gradient, RPA, STAB
   Michael Roemelt        : Original ROCIS implementation
   Masaaki Saitow         : Open-shell DLPNO-CCSD energy and density
   Barbara Sandhoefer     : DKH picture change effects
   Avijit Sen             : IP-ROCIS
   Kantharuban Sivalingam : CASSCF convergence, NEVPT2, FIC-MRCI
   Bernardo de Souza      : ESD, SOC TD-DFT
   Georgi Stoychev        : AutoAux, RI-MP2 NMR, DLPNO-MP2 response
   Willem Van den Heuvel  : Paramagnetic NMR
   Boris Wezisla          : Elementary symmetry handling
   Frank Wennmohs         : Technical directorship


 We gratefully acknowledge several colleagues who have allowed us to
 interface, adapt or use parts of their codes:
   Stefan Grimme, W. Hujo, H. Kruse, P. Pracht,  : VdW corrections, initial TS optimization,
                  C. Bannwarth, S. Ehlert          DFT functionals, gCP, sTDA/sTD-DF
   Ed Valeev, F. Pavosevic, A. Kumar             : LibInt (2-el integral package), F12 methods
   Garnet Chan, S. Sharma, J. Yang, R. Olivares  : DMRG
   Ulf Ekstrom                                   : XCFun DFT Library
   Mihaly Kallay                                 : mrcc  (arbitrary order and MRCC methods)
   Jiri Pittner, Ondrej Demel                    : Mk-CCSD
   Frank Weinhold                                : gennbo (NPA and NBO analysis)
   Christopher J. Cramer and Donald G. Truhlar   : smd solvation model
   Lars Goerigk                                  : TD-DFT with DH, B97 family of functionals
   V. Asgeirsson, H. Jonsson                     : NEB implementation
   FAccTs GmbH                                   : IRC, NEB, NEB-TS, DLPNO-Multilevel, CI-OPT
                                                   MM, QMMM, 2- and 3-layer-ONIOM, Crystal-QMMM,
                                                   LR-CPCM, SF, NACMEs, symmetry and pop. for TD-DFT,
                                                   nearIR, NL-DFT gradient (VV10), updates on ESD,
                                                   ML-optimized integration grids
   S Lehtola, MJT Oliveira, MAL Marques          : LibXC Library
   Liviu Ungur et al                             : ANISO software


 Your calculation uses the libint2 library for the computation of 2-el integrals
 For citations please refer to: http://libint.valeyev.net

 Your ORCA version has been built with support for libXC version: 5.1.0
 For citations please refer to: https://tddft.org/programs/libxc/

 This ORCA versions uses:
   CBLAS   interface :  Fast vector & matrix operations
   LAPACKE interface :  Fast linear algebra routines
   SCALAPACK package :  Parallel linear algebra routines
   Shared memory     :  Shared parallel matrices
   BLAS/LAPACK       :  OpenBLAS 0.3.15  USE64BITINT DYNAMIC_ARCH NO_AFFINITY Haswell SINGLE_THREADED
        Core in use  :  Haswell
   Copyright (c) 2011-2014, The OpenBLAS Project




***************************************
The coordinates will be read from file: r5.xyz
***************************************


Your calculation utilizes the geometrical counterpoise correction gCP
Please cite in your paper:
H.Kruse, S. Grimme J.Chem.Phys., 136, (2012), 154101 
   

Your calculation utilizes the atom-pairwise dispersion correction
with the Becke-Johnson damping scheme (D3BJ)
Cite in your paper:
S.Grimme, S.Ehrlich, L.Goerigk, J Comput Chem, (2011), 32, 1456–1465 
S.Grimme, J.Antony, S.Ehrlich and H.Krieg, J.Chem.Phys., 132, (2010), 154104 
   

Your calculation employs the composite approach PBEh-3c.
Please cite in your paper:
S. Grimme, J. G. Brandenburg, C. Bannwarth, A. Hansen J.Chem.Phys., 143, (2015), 054107 
   

================================================================================

----- Orbital basis set information -----
Your calculation utilizes the basis: def2-mSVP

----- AuxJ basis set information -----
Your calculation utilizes the auxiliary basis: def2/J
   F. Weigend, Phys. Chem. Chem. Phys. 8, 1057 (2006).

================================================================================
                                        WARNINGS
                       Please study these warnings very carefully!
================================================================================


INFO   : the flag for use of the SHARK integral package has been found!

================================================================================
                                       INPUT FILE
================================================================================
NAME = pbeh-3c.inp
|  1> ! PBEh-3c def2/J TightSCF DefGrid3
|  2> 
|  3> %maxcore 60000
|  4> 
|  5> %pal
|  6> nprocs 4
|  7> end
|  8> 
|  9> *xyzfile 0 1 r5.xyz
| 10> 
| 11>                          ****END OF INPUT****
================================================================================

                       ****************************
                       * Single Point Calculation *
                       ****************************

---------------------------------
CARTESIAN COORDINATES (ANGSTROEM)
---------------------------------
  C      1.330904    1.049052   -0.775504
  C      1.330904    1.049052    0.775504
  C     -0.052826    0.517196   -1.182523
  C     -0.509925   -0.345220    0.000000
  C     -0.052826    0.517196    1.182523
  C     -2.011205   -0.586358    0.000000
  C      0.229469   -1.681739    0.000000
  H      2.118171    0.400472   -1.156841
  H      1.515296    2.040580   -1.184515
  H      2.118171    0.400472    1.156841
  H      1.515296    2.040580    1.184515
  H     -0.039202   -0.036296   -2.122607
  H     -0.753398    1.347813   -1.299016
  H     -0.039202   -0.036296    2.122607
  H     -0.753398    1.347813    1.299016
  H     -2.554677    0.359468    0.000000
  H     -2.316236   -1.152576   -0.881509
  H     -2.316236   -1.152576    0.881509
  H      1.311038   -1.547078    0.000000
  H     -0.035058   -2.265778    0.882772
  H     -0.035058   -2.265778   -0.882772

----------------------------
CARTESIAN COORDINATES (A.U.)
----------------------------
  NO LB      ZA    FRAG     MASS         X           Y           Z
   0 C     6.0000    0    12.011    2.515043    1.982421   -1.465490
   1 C     6.0000    0    12.011    2.515043    1.982421    1.465490
   2 C     6.0000    0    12.011   -0.099826    0.977359   -2.234645
   3 C     6.0000    0    12.011   -0.963618   -0.652371    0.000000
   4 C     6.0000    0    12.011   -0.099826    0.977359    2.234645
   5 C     6.0000    0    12.011   -3.800627   -1.108056    0.000000
   6 C     6.0000    0    12.011    0.433634   -3.178027    0.000000
   7 H     1.0000    0     1.008    4.002763    0.756783   -2.186113
   8 H     1.0000    0     1.008    2.863495    3.856137   -2.238409
   9 H     1.0000    0     1.008    4.002763    0.756783    2.186113
  10 H     1.0000    0     1.008    2.863495    3.856137    2.238409
  11 H     1.0000    0     1.008   -0.074082   -0.068589   -4.011147
  12 H     1.0000    0     1.008   -1.423716    2.546998   -2.454785
  13 H     1.0000    0     1.008   -0.074082   -0.068589    4.011147
  14 H     1.0000    0     1.008   -1.423716    2.546998    2.454785
  15 H     1.0000    0     1.008   -4.827640    0.679296    0.000000
  16 H     1.0000    0     1.008   -4.377052   -2.178053   -1.665811
  17 H     1.0000    0     1.008   -4.377052   -2.178053    1.665811
  18 H     1.0000    0     1.008    2.477502   -2.923553    0.000000
  19 H     1.0000    0     1.008   -0.066251   -4.281700    1.668198
  20 H     1.0000    0     1.008   -0.066251   -4.281700   -1.668198

--------------------------------
INTERNAL COORDINATES (ANGSTROEM)
--------------------------------
 C      0   0   0     0.000000000000     0.00000000     0.00000000
 C      1   0   0     1.551007600000     0.00000000     0.00000000
 C      1   2   0     1.537284357255   105.35300913     0.00000000
 C      3   1   2     1.533317291561   104.99491828   334.35540629
 C      4   3   1     1.533317291561   100.92695775    40.96603434
 C      4   3   1     1.520523339844   112.55293010   161.17405360
 C      4   3   1     1.527412145138   110.35566244   284.25478415
 H      1   2   3     1.088973556988   110.49835543   240.50792667
 H      1   2   3     1.088309797694   112.07515697   121.55981243
 H      2   1   3     1.088973556988   110.49835543   119.49207333
 H      2   1   3     1.088309797694   112.07515697   238.44018757
 H      3   1   2     1.091007130188   113.10504838   211.31308259
 H      3   1   2     1.092838816646   110.01644310    91.00994448
 H      5   4   3     1.091007130188   112.51420375   195.61237691
 H      5   4   3     1.092838816646   108.57807943    76.67078019
 H      6   4   3     1.090846986411   110.75669090   303.37569405
 H      6   4   3     1.091194499052   110.99534443    63.46035610
 H      6   4   3     1.091194499052   110.99534443   183.29103199
 H      7   4   3     1.089919240308   111.85526176    55.34475225
 H      7   4   3     1.091037627543   110.55070285   175.56437984
 H      7   4   3     1.091037627543   110.55070285   295.12512466

---------------------------
INTERNAL COORDINATES (A.U.)
---------------------------
 C      0   0   0     0.000000000000     0.00000000     0.00000000
 C      1   0   0     2.930979595630     0.00000000     0.00000000
 C      1   2   0     2.905046425174   105.35300913     0.00000000
 C      3   1   2     2.897549757455   104.99491828   334.35540629
 C      4   3   1     2.897549757455   100.92695775    40.96603434
 C      4   3   1     2.873372692540   112.55293010   161.17405360
 C      4   3   1     2.886390647937   110.35566244   284.25478415
 H      1   2   3     2.057861789790   110.49835543   240.50792667
 H      1   2   3     2.056607466505   112.07515697   121.55981243
 H      2   1   3     2.057861789790   110.49835543   119.49207333
 H      2   1   3     2.056607466505   112.07515697   238.44018757
 H      3   1   2     2.061704686212   113.10504838   211.31308259
 H      3   1   2     2.065166071980   110.01644310    91.00994448
 H      5   4   3     2.061704686212   112.51420375   195.61237691
 H      5   4   3     2.065166071980   108.57807943    76.67078019
 H      6   4   3     2.061402058331   110.75669090   303.37569405
 H      6   4   3     2.062058762049   110.99534443    63.46035610
 H      6   4   3     2.062058762049   110.99534443   183.29103199
 H      7   4   3     2.059648872273   111.85526176    55.34475225
 H      7   4   3     2.061762317859   110.55070285   175.56437984
 H      7   4   3     2.061762317859   110.55070285   295.12512466

---------------------
BASIS SET INFORMATION
---------------------
There are 2 groups of distinct atoms

 Group   1 Type C   : 8s4p1d contracted to 4s2p1d pattern {5111/31/1}
 Group   2 Type H   : 4s contracted to 2s pattern {31}

Atom   0C    basis set group =>   1
Atom   1C    basis set group =>   1
Atom   2C    basis set group =>   1
Atom   3C    basis set group =>   1
Atom   4C    basis set group =>   1
Atom   5C    basis set group =>   1
Atom   6C    basis set group =>   1
Atom   7H    basis set group =>   2
Atom   8H    basis set group =>   2
Atom   9H    basis set group =>   2
Atom  10H    basis set group =>   2
Atom  11H    basis set group =>   2
Atom  12H    basis set group =>   2
Atom  13H    basis set group =>   2
Atom  14H    basis set group =>   2
Atom  15H    basis set group =>   2
Atom  16H    basis set group =>   2
Atom  17H    basis set group =>   2
Atom  18H    basis set group =>   2
Atom  19H    basis set group =>   2
Atom  20H    basis set group =>   2
---------------------------------
AUXILIARY/J BASIS SET INFORMATION
---------------------------------
There are 2 groups of distinct atoms

 Group   1 Type C   : 12s5p4d2f1g contracted to 6s4p3d1f1g pattern {711111/2111/211/2/1}
 Group   2 Type H   : 5s2p1d contracted to 3s1p1d pattern {311/2/1}

Atom   0C    basis set group =>   1
Atom   1C    basis set group =>   1
Atom   2C    basis set group =>   1
Atom   3C    basis set group =>   1
Atom   4C    basis set group =>   1
Atom   5C    basis set group =>   1
Atom   6C    basis set group =>   1
Atom   7H    basis set group =>   2
Atom   8H    basis set group =>   2
Atom   9H    basis set group =>   2
Atom  10H    basis set group =>   2
Atom  11H    basis set group =>   2
Atom  12H    basis set group =>   2
Atom  13H    basis set group =>   2
Atom  14H    basis set group =>   2
Atom  15H    basis set group =>   2
Atom  16H    basis set group =>   2
Atom  17H    basis set group =>   2
Atom  18H    basis set group =>   2
Atom  19H    basis set group =>   2
Atom  20H    basis set group =>   2


           ************************************************************
           *        Program running with 4 parallel MPI-processes     *
           *              working on a common directory               *
           ************************************************************
------------------------------------------------------------------------------
                           ORCA GTO INTEGRAL CALCULATION
                           -- RI-GTO INTEGRALS CHOSEN --
------------------------------------------------------------------------------
------------------------------------------------------------------------------
                   ___                                                        
                  /   \      - P O W E R E D   B Y -                         
                 /     \                                                     
                 |  |  |   _    _      __       _____    __    __             
                 |  |  |  | |  | |    /  \     |  _  \  |  |  /  |          
                  \  \/   | |  | |   /    \    | | | |  |  | /  /          
                 / \  \   | |__| |  /  /\  \   | |_| |  |  |/  /          
                |  |  |   |  __  | /  /__\  \  |    /   |      \           
                |  |  |   | |  | | |   __   |  |    \   |  |\   \          
                \     /   | |  | | |  |  |  |  | |\  \  |  | \   \       
                 \___/    |_|  |_| |__|  |__|  |_| \__\ |__|  \__/        
                                                                              
                      - O R C A' S   B I G   F R I E N D -                    
                                      &                                       
                       - I N T E G R A L  F E E D E R -                       
                                                                              
 v1 FN, 2020, v2 2021                                                         
------------------------------------------------------------------------------


Reading SHARK input file pbeh-3c.SHARKINP.tmp ... ok
----------------------
SHARK INTEGRAL PACKAGE
----------------------

Number of atoms                             ...     21
Number of basis functions                   ...    133
Number of shells                            ...     77
Maximum angular momentum                    ...      2
Integral batch strategy                     ... SHARK/LIBINT Hybrid
RI-J (if used) integral strategy            ... SPLIT-RIJ (Revised 2003 algorithm where possible)
Printlevel                                  ...      1
Contraction scheme used                     ... SEGMENTED contraction
Coulomb Range Separation                    ... NOT USED
Exchange Range Separation                   ... NOT USED
Finite Nucleus Model                        ... NOT USED
Auxiliary Coulomb fitting basis             ... AVAILABLE
   # of basis functions in Aux-J            ...    497
   # of shells in Aux-J                     ...    175
   Maximum angular momentum in Aux-J        ...      4
Auxiliary J/K fitting basis                 ... NOT available
Auxiliary Correlation fitting basis         ... NOT available
Auxiliary 'external' fitting basis          ... NOT available
Integral threshold                          ...     2.500000e-11
Primitive cut-off                           ...     2.500000e-12
Primitive pair pre-selection threshold      ...     2.500000e-12

Calculating pre-screening integrals         ... done (  0.1 sec) Dimension = 77
Organizing shell pair data                  ... done (  0.5 sec)
Shell pair information
Total number of shell pairs                 ...      3003
Shell pairs after pre-screening             ...      2880
Total number of primitive shell pairs       ...     11011
Primitive shell pairs kept                  ...      7692
          la=0 lb=0:   1481 shell pairs
          la=1 lb=0:    784 shell pairs
          la=1 lb=1:    105 shell pairs
          la=2 lb=0:    384 shell pairs
          la=2 lb=1:     98 shell pairs
          la=2 lb=2:     28 shell pairs

Calculating one electron integrals          ... done (  0.0 sec)
Calculating RI/J V-Matrix + Cholesky decomp.... done (  0.6 sec)
Calculating Nuclear repulsion               ... done (  0.0 sec) ENN=    335.715050270488 Eh

SHARK setup successfully completed in   2.0 seconds

Maximum memory used throughout the entire GTOINT-calculation: 11.5 MB


           ************************************************************
           *        Program running with 4 parallel MPI-processes     *
           *              working on a common directory               *
           ************************************************************
-------------------------------------------------------------------------------
                                 ORCA SCF
-------------------------------------------------------------------------------

------------
SCF SETTINGS
------------
Hamiltonian:
 Density Functional     Method          .... DFT(GTOs)
 Exchange Functional    Exchange        .... PBE
   PBE kappa parameter   XKappa         ....  1.024500
   PBE mue parameter    XMuePBE         ....  0.123457
 Correlation Functional Correlation     .... PBE
   PBE beta parameter  CBetaPBE         ....  0.030000
 LDA part of GGA corr.  LDAOpt          .... PW91-LDA
 Gradients option       PostSCFGGA      .... off
 Hybrid DFT is turned on
   Fraction HF Exchange ScalHFX         ....  0.420000
   Scaling of DF-GGA-X  ScalDFX         ....  0.580000
   Scaling of DF-GGA-C  ScalDFC         ....  1.000000
   Scaling of DF-LDA-C  ScalLDAC        ....  1.000000
   Perturbative correction              ....  0.000000
   Density functional embedding theory  .... OFF
 RI-approximation to the Coulomb term is turned on
   Number of AuxJ basis functions       .... 497
   RIJ-ON(X) (HFX calculated with O(N)) .... on
   Number of AuxJ basis functions       .... 497
   RIJ-COSX (HFX calculated with COS-X)).... on


General Settings:
 Integral files         IntName         .... pbeh-3c
 Hartree-Fock type      HFTyp           .... RHF
 Total Charge           Charge          ....    0
 Multiplicity           Mult            ....    1
 Number of Electrons    NEL             ....   56
 Basis Dimension        Dim             ....  133
 Nuclear Repulsion      ENuc            ....    335.7150502705 Eh

Convergence Acceleration:
 DIIS                   CNVDIIS         .... on
   Start iteration      DIISMaxIt       ....    12
   Startup error        DIISStart       ....  0.200000
   # of expansion vecs  DIISMaxEq       ....     5
   Bias factor          DIISBfac        ....   1.050
   Max. coefficient     DIISMaxC        ....  10.000
 Trust-Rad. Augm. Hess. CNVTRAH         .... auto
   Auto Start mean grad. ratio tolernc. ....  1.125000
   Auto Start start iteration           ....    20
   Auto Start num. interpolation iter.  ....    10
   Max. Number of Micro iterations      ....    16
   Max. Number of Macro iterations      .... Maxiter - #DIIS iter
   Number of Davidson start vectors     ....     2
   Converg. threshold I  (grad. norm)   ....   1.000e-05
   Converg. threshold II (energy diff.) ....   1.000e-08
   Grad. Scal. Fac. for Micro threshold ....   0.100
   Minimum threshold for Micro iter.    ....   0.010
   NR start threshold (gradient norm)   ....   0.001
   Initial trust radius                 ....   0.400
   Minimum AH scaling param. (alpha)    ....   1.000
   Maximum AH scaling param. (alpha)    .... 1000.000
   Orbital update algorithm             .... Taylor
   White noise on init. David. guess    .... on
   Maximum white noise                  ....   0.010
   Quad. conv. algorithm                .... NR
   COSX micro iterations for RIJONX calc.... off
 SOSCF                  CNVSOSCF        .... on
   Start iteration      SOSCFMaxIt      ....   150
   Startup grad/error   SOSCFStart      ....  0.003300
 Level Shifting         CNVShift        .... on
   Level shift para.    LevelShift      ....    0.2500
   Turn off err/grad.   ShiftErr        ....    0.0010
 Zerner damping         CNVZerner       .... off
 Static damping         CNVDamp         .... on
   Fraction old density DampFac         ....    0.7000
   Max. Damping (<1)    DampMax         ....    0.9800
   Min. Damping (>=0)   DampMin         ....    0.0000
   Turn off err/grad.   DampErr         ....    0.1000
 Fernandez-Rico         CNVRico         .... off

SCF Procedure:
 Maximum # iterations   MaxIter         ....   125
 SCF integral mode      SCFMode         .... Direct
   Integral package                     .... SHARK and LIBINT hybrid scheme
 Reset frequency        DirectResetFreq ....    20
 Integral Threshold     Thresh          ....  2.500e-11 Eh
 Primitive CutOff       TCut            ....  2.500e-12 Eh

Convergence Tolerance:
 Convergence Check Mode ConvCheckMode   .... Total+1el-Energy
 Convergence forced     ConvForced      .... 0
 Energy Change          TolE            ....  1.000e-08 Eh
 1-El. energy change                    ....  1.000e-05 Eh
 Orbital Gradient       TolG            ....  1.000e-05
 Orbital Rotation angle TolX            ....  1.000e-05
 DIIS Error             TolErr          ....  5.000e-07


Diagonalization of the overlap matrix:
Smallest eigenvalue                        ... 4.756e-03
Time for diagonalization                   ...    0.003 sec
Threshold for overlap eigenvalues          ... 1.000e-08
Number of eigenvalues below threshold      ... 0
Time for construction of square roots      ...    0.016 sec
Total time needed                          ...    0.020 sec

--------------------------------
INITIAL GUESS: MINIMAL BASIS EHT
--------------------------------
The minimal basis has 49 functions
EHT matrix was diagonalized
Basis set overlap was calculated now projecting the orbitals
Using GuessMode=FMatrix for the initial guess
C*T matrix was formed
Effective Fockian was calculated
Effective Fockian was diagonalized
Initial density was built
                      ------------------
                      INITIAL GUESS DONE
                      ------------------
-------------------
DFT GRID GENERATION
-------------------

General Integration Accuracy     IntAcc      ... 4.959
Radial Grid Type                 RadialGrid  ... OptM3 with GC (2021)
Angular Grid (max. ang.)         AngularGrid ... 6 (Lebedev-590)
Angular grid pruning method      GridPruning ... 4 (adaptive)
Weight generation scheme         WeightScheme... Becke
Basis function cutoff            BFCut       ... 1.0000e-11
Integration weight cutoff        WCut        ... 1.0000e-14
Angular grids for H and He will be reduced by one unit
Partially contracted basis set               ... off
Rotationally invariant grid construction     ... off

Total number of grid points                  ...   219113
Total number of batches                      ...     3438
Average number of points per batch           ...       63
Average number of grid points per atom       ...    10434
Time for grid setup =    5.108 sec

--------------------
COSX GRID GENERATION
--------------------

GRIDX 1
-------
General Integration Accuracy     IntAcc      ... 4.020
Radial Grid Type                 RadialGrid  ... OptM3 with GC (2021)
Angular Grid (max. ang.)         AngularGrid ... 2 (Lebedev-110)
Angular grid pruning method      GridPruning ... 4 (adaptive)
Weight generation scheme         WeightScheme... Becke
Basis function cutoff            BFCut       ... 1.0000e-11
Integration weight cutoff        WCut        ... 1.0000e-14
Angular grids for H and He will be reduced by one unit
Partially contracted basis set               ... on
Rotationally invariant grid construction     ... off

Total number of grid points                  ...    22825
Total number of batches                      ...      366
Average number of points per batch           ...       62
Average number of grid points per atom       ...     1087
UseSFitting                                  ... on

GRIDX 2
-------
General Integration Accuracy     IntAcc      ... 4.338
Radial Grid Type                 RadialGrid  ... OptM3 with GC (2021)
Angular Grid (max. ang.)         AngularGrid ... 3 (Lebedev-194)
Angular grid pruning method      GridPruning ... 4 (adaptive)
Weight generation scheme         WeightScheme... Becke
Basis function cutoff            BFCut       ... 1.0000e-11
Integration weight cutoff        WCut        ... 1.0000e-14
Angular grids for H and He will be reduced by one unit
Partially contracted basis set               ... on
Rotationally invariant grid construction     ... off

Total number of grid points                  ...    49619
Total number of batches                      ...      786
Average number of points per batch           ...       63
Average number of grid points per atom       ...     2363
UseSFitting                                  ... on

GRIDX 3
-------
General Integration Accuracy     IntAcc      ... 4.871
Radial Grid Type                 RadialGrid  ... OptM3 with GC (2021)
Angular Grid (max. ang.)         AngularGrid ... 4 (Lebedev-302)
Angular grid pruning method      GridPruning ... 4 (adaptive)
Weight generation scheme         WeightScheme... Becke
Basis function cutoff            BFCut       ... 1.0000e-11
Integration weight cutoff        WCut        ... 1.0000e-14
Angular grids for H and He will be reduced by one unit
Partially contracted basis set               ... on
Rotationally invariant grid construction     ... off

Total number of grid points                  ...    98591
Total number of batches                      ...     1551
Average number of points per batch           ...       63
Average number of grid points per atom       ...     4695
UseSFitting                                  ... on

Time for X-Grid setup             =    5.459 sec

--------------
SCF ITERATIONS
--------------
ITER       Energy         Delta-E        Max-DP      RMS-DP      [F,P]     Damp
               ***  Starting incremental Fock matrix formation  ***
  0   -274.1046438930   0.000000000000 0.07407116  0.00220082  0.4036123 0.7000
  1   -274.2513478449  -0.146703951825 0.05377171  0.00168379  0.2860326 0.7000
  2   -274.3563030608  -0.104955215890 0.04066445  0.00127298  0.2017529 0.7000
                               ***Turning on DIIS***
  3   -274.4306972469  -0.074394186149 0.03097963  0.00095630  0.1421957 0.7000
  4   -274.4832978108  -0.052600563853 0.02538171  0.00075767  0.1001301 0.7000
  5   -274.5204144263  -0.037116615537 0.06316012  0.00190532  0.0701709 0.0000
                      *** Initiating the SOSCF procedure ***
                           *** Shutting down DIIS ***
                      *** Re-Reading the Fockian *** 
                      *** Removing any level shift *** 
ITER      Energy       Delta-E        Grad      Rot      Max-DP    RMS-DP
  6   -274.60811552  -0.0877010905  0.000583  0.000583  0.002021  0.000117
               *** Restarting incremental Fock matrix formation ***
  7   -274.60813357  -0.0000180512  0.000155  0.000198  0.000577  0.000029
  8   -274.60813383  -0.0000002628  0.000139  0.000105  0.000190  0.000010
  9   -274.60813449  -0.0000006570  0.000011  0.000011  0.000040  0.000001
 10   -274.60813449  -0.0000000016  0.000010  0.000005  0.000021  0.000000
                 **** Energy Check signals convergence ****
              ***Rediagonalizing the Fockian in SOSCF/NRSCF***

               *****************************************************
               *                     SUCCESS                       *
               *           SCF CONVERGED AFTER  11 CYCLES          *
               *****************************************************

Old exchange energy                            =    -17.360035049 Eh
New exchange energy                            =    -17.360024718 Eh
Exchange energy change after final integration =      0.000010332 Eh
Total energy after final integration           =   -274.608124156 Eh
Final COS-X integration done in                =     5.280 sec

----------------
TOTAL SCF ENERGY
----------------

Total Energy       :         -274.60812416 Eh           -7472.46695 eV

Components:
Nuclear Repulsion  :          335.71505027 Eh            9135.27095 eV
Electronic Energy  :         -610.32317443 Eh          -16607.73790 eV
One Electron Energy:        -1034.30009715 Eh          -28144.73649 eV
Two Electron Energy:          423.97692273 Eh           11536.99860 eV
Max COSX asymmetry :            0.00000101 Eh               0.00003 eV

Virial components:
Potential Energy   :         -546.90616136 Eh          -14882.07324 eV
Kinetic Energy     :          272.29803721 Eh            7409.60629 eV
Virial Ratio       :            2.00848367


DFT components:
N(Alpha)           :       27.999996084157 electrons
N(Beta)            :       27.999996084157 electrons
N(Total)           :       55.999992168314 electrons
E(X)               :      -22.992576570965 Eh       
E(C)               :       -2.385708024328 Eh       
E(XC)              :      -25.378284595293 Eh       
DFET-embed. en.    :        0.000000000000 Eh       

---------------
SCF CONVERGENCE
---------------

  Last Energy change         ...    1.7928e-09  Tolerance :   1.0000e-08
  Last MAX-Density change    ...    9.9920e-16  Tolerance :   1.0000e-07
  Last RMS-Density change    ...    3.5498e-17  Tolerance :   5.0000e-09
  Last Orbital Gradient      ...    2.9196e-07  Tolerance :   1.0000e-05
  Last Orbital Rotation      ...    2.5779e-07  Tolerance :   1.0000e-05

             **** THE GBW FILE WAS UPDATED (pbeh-3c.gbw) ****
             **** DENSITY pbeh-3c.scfp WAS UPDATED ****
             **** ENERGY FILE WAS UPDATED (pbeh-3c.en.tmp) ****
             **** THE GBW FILE WAS UPDATED (pbeh-3c.gbw) ****
             **** DENSITY pbeh-3c.scfp WAS UPDATED ****
----------------
ORBITAL ENERGIES
----------------

  NO   OCC          E(Eh)            E(eV) 
   0   2.0000     -10.440786      -284.1082 
   1   2.0000     -10.424507      -283.6652 
   2   2.0000     -10.424330      -283.6605 
   3   2.0000     -10.422054      -283.5985 
   4   2.0000     -10.422004      -283.5971 
   5   2.0000     -10.417142      -283.4649 
   6   2.0000     -10.416819      -283.4561 
   7   2.0000      -0.940986       -25.6055 
   8   2.0000      -0.839905       -22.8550 
   9   2.0000      -0.787032       -21.4162 
  10   2.0000      -0.762399       -20.7459 
  11   2.0000      -0.723446       -19.6860 
  12   2.0000      -0.632019       -17.1981 
  13   2.0000      -0.592488       -16.1224 
  14   2.0000      -0.533059       -14.5053 
  15   2.0000      -0.526260       -14.3203 
  16   2.0000      -0.495248       -13.4764 
  17   2.0000      -0.483602       -13.1595 
  18   2.0000      -0.451638       -12.2897 
  19   2.0000      -0.444350       -12.0914 
  20   2.0000      -0.423710       -11.5297 
  21   2.0000      -0.410698       -11.1757 
  22   2.0000      -0.381634       -10.3848 
  23   2.0000      -0.379909       -10.3378 
  24   2.0000      -0.363110        -9.8807 
  25   2.0000      -0.359480        -9.7819 
  26   2.0000      -0.356959        -9.7133 
  27   2.0000      -0.345839        -9.4107 
  28   0.0000       0.115449         3.1415 
  29   0.0000       0.148114         4.0304 
  30   0.0000       0.163339         4.4447 
  31   0.0000       0.181482         4.9384 
  32   0.0000       0.195145         5.3102 
  33   0.0000       0.204386         5.5616 
  34   0.0000       0.205847         5.6014 
  35   0.0000       0.220057         5.9881 
  36   0.0000       0.221758         6.0343 
  37   0.0000       0.234399         6.3783 
  38   0.0000       0.235752         6.4152 
  39   0.0000       0.245413         6.6780 
  40   0.0000       0.252147         6.8613 
  41   0.0000       0.257227         6.9995 
  42   0.0000       0.268196         7.2980 
  43   0.0000       0.272745         7.4218 
  44   0.0000       0.293671         7.9912 
  45   0.0000       0.315371         8.5817 
  46   0.0000       0.321692         8.7537 
  47   0.0000       0.331203         9.0125 
  48   0.0000       0.342290         9.3142 
  49   0.0000       0.508072        13.8254 
  50   0.0000       0.520449        14.1622 
  51   0.0000       0.524717        14.2783 
  52   0.0000       0.535163        14.5625 
  53   0.0000       0.543556        14.7909 
  54   0.0000       0.555005        15.1025 
  55   0.0000       0.591888        16.1061 
  56   0.0000       0.600696        16.3458 
  57   0.0000       0.646585        17.5945 
  58   0.0000       0.668006        18.1774 
  59   0.0000       0.683145        18.5893 
  60   0.0000       0.698845        19.0166 
  61   0.0000       0.705026        19.1847 
  62   0.0000       0.729635        19.8544 
  63   0.0000       0.738931        20.1073 
  64   0.0000       0.784188        21.3388 
  65   0.0000       0.797585        21.7034 
  66   0.0000       0.799136        21.7456 
  67   0.0000       0.883380        24.0380 
  68   0.0000       0.888696        24.1826 
  69   0.0000       0.947009        25.7694 
  70   0.0000       0.963306        26.2129 
  71   0.0000       0.980124        26.6705 
  72   0.0000       1.006639        27.3920 
  73   0.0000       1.029196        28.0058 
  74   0.0000       1.038360        28.2552 
  75   0.0000       1.040404        28.3108 
  76   0.0000       1.045144        28.4398 
  77   0.0000       1.054230        28.6871 
  78   0.0000       1.068657        29.0796 
  79   0.0000       1.082927        29.4679 
  80   0.0000       1.095013        29.7968 
  81   0.0000       1.100491        29.9459 
  82   0.0000       1.109218        30.1834 
  83   0.0000       1.143942        31.1282 
  84   0.0000       1.248778        33.9810 
  85   0.0000       1.290519        35.1168 
  86   0.0000       1.366653        37.1885 
  87   0.0000       1.376773        37.4639 
  88   0.0000       1.455628        39.6097 
  89   0.0000       1.484359        40.3915 
  90   0.0000       1.566089        42.6154 
  91   0.0000       1.578127        42.9430 
  92   0.0000       1.684707        45.8432 
  93   0.0000       1.720967        46.8299 
  94   0.0000       1.806464        49.1564 
  95   0.0000       1.840426        50.0805 
  96   0.0000       1.859843        50.6089 
  97   0.0000       1.886634        51.3379 
  98   0.0000       1.898473        51.6601 
  99   0.0000       1.906747        51.8852 
 100   0.0000       1.940090        52.7925 
 101   0.0000       1.986560        54.0570 
 102   0.0000       2.021971        55.0206 
 103   0.0000       2.069808        56.3223 
 104   0.0000       2.106787        57.3286 
 105   0.0000       2.121464        57.7280 
 106   0.0000       2.162189        58.8361 
 107   0.0000       2.172032        59.1040 
 108   0.0000       2.234103        60.7930 
 109   0.0000       2.254752        61.3549 
 110   0.0000       2.300790        62.6077 
 111   0.0000       2.300952        62.6121 
 112   0.0000       2.334084        63.5136 
 113   0.0000       2.347395        63.8759 
 114   0.0000       2.374952        64.6257 
 115   0.0000       2.397901        65.2502 
 116   0.0000       2.424567        65.9758 
 117   0.0000       2.533067        68.9283 
 118   0.0000       2.606448        70.9251 
 119   0.0000       2.636212        71.7350 
 120   0.0000       2.684950        73.0612 
 121   0.0000       2.723667        74.1148 
 122   0.0000       2.781055        75.6764 
 123   0.0000       2.796958        76.1091 
 124   0.0000       2.816035        76.6282 
 125   0.0000       2.921144        79.4884 
 126   0.0000      13.501418       367.3923 
 127   0.0000      13.782743       375.0475 
 128   0.0000      13.889470       377.9517 
 129   0.0000      13.899288       378.2188 
 130   0.0000      14.003524       381.0553 
 131   0.0000      14.131265       384.5313 
 132   0.0000      14.190400       386.1404 

                    ********************************
                    * MULLIKEN POPULATION ANALYSIS *
                    ********************************

-----------------------
MULLIKEN ATOMIC CHARGES
-----------------------
   0 C :   -0.441592
   1 C :   -0.441592
   2 C :   -0.397578
   3 C :   -0.096880
   4 C :   -0.397578
   5 C :   -0.614929
   6 C :   -0.621190
   7 H :    0.216722
   8 H :    0.222370
   9 H :    0.216722
  10 H :    0.222370
  11 H :    0.216218
  12 H :    0.210419
  13 H :    0.216218
  14 H :    0.210419
  15 H :    0.209008
  16 H :    0.212079
  17 H :    0.212079
  18 H :    0.220192
  19 H :    0.213263
  20 H :    0.213263
Sum of atomic charges:   -0.0000000

--------------------------------
MULLIKEN REDUCED ORBITAL CHARGES
--------------------------------
  0 C s       :     3.321689  s :     3.321689
      pz      :     0.949893  p :     3.078044
      px      :     0.999953
      py      :     1.128198
      dz2     :     0.010188  d :     0.041859
      dxz     :     0.007292
      dyz     :     0.007513
      dx2y2   :     0.007583
      dxy     :     0.009284
  1 C s       :     3.321690  s :     3.321690
      pz      :     0.949892  p :     3.078044
      px      :     0.999953
      py      :     1.128199
      dz2     :     0.010188  d :     0.041859
      dxz     :     0.007292
      dyz     :     0.007513
      dx2y2   :     0.007583
      dxy     :     0.009284
  2 C s       :     3.320850  s :     3.320850
      pz      :     1.019051  p :     3.033843
      px      :     0.968963
      py      :     1.045829
      dz2     :     0.010788  d :     0.042885
      dxz     :     0.005040
      dyz     :     0.009812
      dx2y2   :     0.005494
      dxy     :     0.011751
  3 C s       :     3.237166  s :     3.237166
      pz      :     0.931134  p :     2.804545
      px      :     0.948742
      py      :     0.924669
      dz2     :     0.010535  d :     0.055169
      dxz     :     0.008206
      dyz     :     0.012879
      dx2y2   :     0.012146
      dxy     :     0.011403
  4 C s       :     3.320850  s :     3.320850
      pz      :     1.019051  p :     3.033843
      px      :     0.968963
      py      :     1.045829
      dz2     :     0.010788  d :     0.042885
      dxz     :     0.005040
      dyz     :     0.009812
      dx2y2   :     0.005494
      dxy     :     0.011751
  5 C s       :     3.374022  s :     3.374022
      pz      :     1.124092  p :     3.203737
      px      :     0.960824
      py      :     1.118820
      dz2     :     0.007245  d :     0.037171
      dxz     :     0.005491
      dyz     :     0.009028
      dx2y2   :     0.006238
      dxy     :     0.009169
  6 C s       :     3.372306  s :     3.372306
      pz      :     1.128662  p :     3.211893
      px      :     1.091467
      py      :     0.991765
      dz2     :     0.007382  d :     0.036990
      dxz     :     0.002031
      dyz     :     0.012423
      dx2y2   :     0.010179
      dxy     :     0.004976
  7 H s       :     0.783278  s :     0.783278
  8 H s       :     0.777630  s :     0.777630
  9 H s       :     0.783278  s :     0.783278
 10 H s       :     0.777630  s :     0.777630
 11 H s       :     0.783782  s :     0.783782
 12 H s       :     0.789581  s :     0.789581
 13 H s       :     0.783782  s :     0.783782
 14 H s       :     0.789581  s :     0.789581
 15 H s       :     0.790992  s :     0.790992
 16 H s       :     0.787921  s :     0.787921
 17 H s       :     0.787921  s :     0.787921
 18 H s       :     0.779808  s :     0.779808
 19 H s       :     0.786737  s :     0.786737
 20 H s       :     0.786737  s :     0.786737


                     *******************************
                     * LOEWDIN POPULATION ANALYSIS *
                     *******************************

----------------------
LOEWDIN ATOMIC CHARGES
----------------------
   0 C :   -0.245232
   1 C :   -0.245232
   2 C :   -0.227064
   3 C :   -0.108735
   4 C :   -0.227064
   5 C :   -0.341831
   6 C :   -0.341918
   7 H :    0.122604
   8 H :    0.125650
   9 H :    0.122604
  10 H :    0.125650
  11 H :    0.123308
  12 H :    0.121375
  13 H :    0.123308
  14 H :    0.121375
  15 H :    0.123462
  16 H :    0.125427
  17 H :    0.125427
  18 H :    0.126325
  19 H :    0.125280
  20 H :    0.125280

-------------------------------
LOEWDIN REDUCED ORBITAL CHARGES
-------------------------------
  0 C s       :     2.914626  s :     2.914626
      pz      :     1.056680  p :     3.245630
      px      :     1.075224
      py      :     1.113726
      dz2     :     0.023385  d :     0.084977
      dxz     :     0.015163
      dyz     :     0.014210
      dx2y2   :     0.014616
      dxy     :     0.017603
  1 C s       :     2.914626  s :     2.914626
      pz      :     1.056680  p :     3.245630
      px      :     1.075224
      py      :     1.113726
      dz2     :     0.023385  d :     0.084977
      dxz     :     0.015163
      dyz     :     0.014210
      dx2y2   :     0.014616
      dxy     :     0.017603
  2 C s       :     2.914956  s :     2.914956
      pz      :     1.074946  p :     3.224159
      px      :     1.065058
      py      :     1.084155
      dz2     :     0.021183  d :     0.087949
      dxz     :     0.011645
      dyz     :     0.019987
      dx2y2   :     0.012026
      dxy     :     0.023108
  3 C s       :     2.842363  s :     2.842363
      pz      :     1.043768  p :     3.138574
      px      :     1.048295
      py      :     1.046512
      dz2     :     0.024452  d :     0.127797
      dxz     :     0.018140
      dyz     :     0.031040
      dx2y2   :     0.028776
      dxy     :     0.025388
  4 C s       :     2.914956  s :     2.914956
      pz      :     1.074946  p :     3.224159
      px      :     1.065058
      py      :     1.084155
      dz2     :     0.021183  d :     0.087949
      dxz     :     0.011645
      dyz     :     0.019987
      dx2y2   :     0.012026
      dxy     :     0.023108
  5 C s       :     2.948932  s :     2.948932
      pz      :     1.126778  p :     3.322666
      px      :     1.071366
      py      :     1.124522
      dz2     :     0.012865  d :     0.070233
      dxz     :     0.011217
      dyz     :     0.014903
      dx2y2   :     0.013494
      dxy     :     0.017753
  6 C s       :     2.949418  s :     2.949418
      pz      :     1.128199  p :     3.322649
      px      :     1.115468
      py      :     1.078982
      dz2     :     0.013090  d :     0.069850
      dxz     :     0.003321
      dyz     :     0.022514
      dx2y2   :     0.019893
      dxy     :     0.011033
  7 H s       :     0.877396  s :     0.877396
  8 H s       :     0.874350  s :     0.874350
  9 H s       :     0.877396  s :     0.877396
 10 H s       :     0.874350  s :     0.874350
 11 H s       :     0.876692  s :     0.876692
 12 H s       :     0.878625  s :     0.878625
 13 H s       :     0.876692  s :     0.876692
 14 H s       :     0.878625  s :     0.878625
 15 H s       :     0.876538  s :     0.876538
 16 H s       :     0.874573  s :     0.874573
 17 H s       :     0.874573  s :     0.874573
 18 H s       :     0.873675  s :     0.873675
 19 H s       :     0.874720  s :     0.874720
 20 H s       :     0.874720  s :     0.874720


                      *****************************
                      * MAYER POPULATION ANALYSIS *
                      *****************************

  NA   - Mulliken gross atomic population
  ZA   - Total nuclear charge
  QA   - Mulliken gross atomic charge
  VA   - Mayer's total valence
  BVA  - Mayer's bonded valence
  FA   - Mayer's free valence

  ATOM       NA         ZA         QA         VA         BVA        FA
  0 C      6.4416     6.0000    -0.4416     3.7237     3.7237    -0.0000
  1 C      6.4416     6.0000    -0.4416     3.7237     3.7237    -0.0000
  2 C      6.3976     6.0000    -0.3976     3.6710     3.6710    -0.0000
  3 C      6.0969     6.0000    -0.0969     3.7865     3.7865     0.0000
  4 C      6.3976     6.0000    -0.3976     3.6710     3.6710     0.0000
  5 C      6.6149     6.0000    -0.6149     3.7163     3.7163    -0.0000
  6 C      6.6212     6.0000    -0.6212     3.6890     3.6890    -0.0000
  7 H      0.7833     1.0000     0.2167     0.9111     0.9111     0.0000
  8 H      0.7776     1.0000     0.2224     0.9129     0.9129     0.0000
  9 H      0.7833     1.0000     0.2167     0.9111     0.9111    -0.0000
 10 H      0.7776     1.0000     0.2224     0.9129     0.9129    -0.0000
 11 H      0.7838     1.0000     0.2162     0.9177     0.9177    -0.0000
 12 H      0.7896     1.0000     0.2104     0.9138     0.9138    -0.0000
 13 H      0.7838     1.0000     0.2162     0.9177     0.9177    -0.0000
 14 H      0.7896     1.0000     0.2104     0.9138     0.9138    -0.0000
 15 H      0.7910     1.0000     0.2090     0.9208     0.9208    -0.0000
 16 H      0.7879     1.0000     0.2121     0.9164     0.9164    -0.0000
 17 H      0.7879     1.0000     0.2121     0.9164     0.9164    -0.0000
 18 H      0.7798     1.0000     0.2202     0.9138     0.9138    -0.0000
 19 H      0.7867     1.0000     0.2133     0.9180     0.9180     0.0000
 20 H      0.7867     1.0000     0.2133     0.9180     0.9180    -0.0000

  Mayer bond orders larger than 0.100000
B(  0-C ,  1-C ) :   0.9607 B(  0-C ,  2-C ) :   0.9752 B(  0-C ,  7-H ) :   0.9300 
B(  0-C ,  8-H ) :   0.9327 B(  1-C ,  4-C ) :   0.9752 B(  1-C ,  9-H ) :   0.9300 
B(  1-C , 10-H ) :   0.9327 B(  2-C ,  3-C ) :   0.9615 B(  2-C , 11-H ) :   0.9298 
B(  2-C , 12-H ) :   0.9263 B(  3-C ,  4-C ) :   0.9615 B(  3-C ,  5-C ) :   0.9972 
B(  3-C ,  6-C ) :   0.9763 B(  4-C , 13-H ) :   0.9298 B(  4-C , 14-H ) :   0.9263 
B(  5-C , 15-H ) :   0.9302 B(  5-C , 16-H ) :   0.9299 B(  5-C , 17-H ) :   0.9299 
B(  6-C , 18-H ) :   0.9262 B(  6-C , 19-H ) :   0.9298 B(  6-C , 20-H ) :   0.9298 


-------
TIMINGS
-------

Total SCF time: 0 days 0 hours 1 min 35 sec 

Total time                  ....      95.116 sec
Sum of individual times     ....      90.209 sec  ( 94.8%)

Fock matrix formation       ....      72.776 sec  ( 76.5%)
  Split-RI-J                ....       7.344 sec  ( 10.1% of F)
  Chain of spheres X        ....      35.624 sec  ( 49.0% of F)
  XC integration            ....      17.550 sec  ( 24.1% of F)
    Basis function eval.    ....       4.406 sec  ( 25.1% of XC)
    Density eval.           ....       2.364 sec  ( 13.5% of XC)
    XC-Functional eval.     ....       1.469 sec  (  8.4% of XC)
    XC-Potential eval.      ....       1.817 sec  ( 10.4% of XC)
Diagonalization             ....       1.314 sec  (  1.4%)
Density matrix formation    ....       0.178 sec  (  0.2%)
Population analysis         ....       0.298 sec  (  0.3%)
Initial guess               ....       0.028 sec  (  0.0%)
Orbital Transformation      ....       0.000 sec  (  0.0%)
Orbital Orthonormalization  ....       0.000 sec  (  0.0%)
DIIS solution               ....       4.018 sec  (  4.2%)
SOSCF solution              ....       1.031 sec  (  1.1%)
Grid generation             ....      10.567 sec  ( 11.1%)

Maximum memory used throughout the entire SCF-calculation: 57.3 MB


-------------------------------------------------------------------------------
                          DFT DISPERSION CORRECTION                            
                                                                               
                              DFTD3 V3.1  Rev 1                                
                          USING Becke-Johnson damping                          
-------------------------------------------------------------------------------
The PBEh-3c composite method is recognized
Using three-body term ABC
Active option DFTDOPT                   ...         4   

molecular C6(AA) [au] = 2960.462472 


            DFT-D V3
 parameters
 s6 scaling factor         :     1.0000 
 a1 scaling factor         :     0.4860 
 s8 scaling factor         :     0.0000 
 a2 scaling factor         :     4.5000 
 Damping factor alpha9(ATM):    16.0000 
 ad hoc parameters k1-k3   :    16.0000     1.3333    -4.0000 

 Edisp/kcal,au: -7.106035154995  -0.011324186631 
 E6   /kcal   :  -7.175671736 
 E8   /kcal   :  -0.000000000 
 E6(ABC)      :   0.069636581 
 % E8         :   0.000000000 
 % E6(ABC)    :  -0.979963928 

-------------------------   ----------------
Dispersion correction           -0.011324187
-------------------------   ----------------

------------------   -----------------
gCP correction             0.030842304
------------------   -----------------

-------------------------   --------------------
FINAL SINGLE POINT ENERGY      -274.588606038427
-------------------------   --------------------


                            ***************************************
                            *     ORCA property calculations      *
                            ***************************************

                                    ---------------------
                                    Active property flags
                                    ---------------------
   (+) Dipole Moment


------------------------------------------------------------------------------
                       ORCA ELECTRIC PROPERTIES CALCULATION
------------------------------------------------------------------------------

Dipole Moment Calculation                       ... on
Quadrupole Moment Calculation                   ... off
Polarizability Calculation                      ... off
GBWName                                         ... pbeh-3c.gbw
Electron density                                ... pbeh-3c.scfp
The origin for moment calculation is the CENTER OF MASS  = ( 0.056010,  0.109942  0.000000)

-------------
DIPOLE MOMENT
-------------
                                X             Y             Z
Electronic contribution:      0.64044       1.26226      -0.00000
Nuclear contribution   :     -0.63744      -1.25123      -0.00000
                        -----------------------------------------
Total Dipole Moment    :      0.00300       0.01103      -0.00000
                        -----------------------------------------
Magnitude (a.u.)       :      0.01144
Magnitude (Debye)      :      0.02907



--------------------
Rotational spectrum 
--------------------
 
Rotational constants in cm-1:     0.130833     0.073667     0.070723 
Rotational constants in MHz :  3922.283116  2208.482651  2120.215669 

 Dipole components along the rotational axes: 
x,y,z [a.u.] :     0.009085    -0.000000     0.006946 
x,y,z [Debye]:     0.023092    -0.000000     0.017655 

 

Timings for individual modules:

Sum of individual times         ...       98.418 sec (=   1.640 min)
GTO integral calculation        ...        2.833 sec (=   0.047 min)   2.9 %
SCF iterations                  ...       95.586 sec (=   1.593 min)  97.1 %
                             ****ORCA TERMINATED NORMALLY****
TOTAL RUN TIME: 0 days 0 hours 1 minutes 40 seconds 927 msec
