
                                 *****************
                                 * O   R   C   A *
                                 *****************

                                            #,                                       
                                            ###                                      
                                            ####                                     
                                            #####                                    
                                            ######                                   
                                           ########,                                 
                                     ,,################,,,,,                         
                               ,,#################################,,                 
                          ,,##########################################,,             
                       ,#########################################, ''#####,          
                    ,#############################################,,   '####,        
                  ,##################################################,,,,####,       
                ,###########''''           ''''###############################       
              ,#####''   ,,,,##########,,,,          '''####'''          '####       
            ,##' ,,,,###########################,,,                        '##       
           ' ,,###''''                  '''############,,,                           
         ,,##''                                '''############,,,,        ,,,,,,###''
      ,#''                                            '''#######################'''  
     '                                                          ''''####''''         
             ,#######,   #######,   ,#######,      ##                                
            ,#'     '#,  ##    ##  ,#'     '#,    #''#        ######   ,####,        
            ##       ##  ##   ,#'  ##            #'  '#       #        #'  '#        
            ##       ##  #######   ##           ,######,      #####,   #    #        
            '#,     ,#'  ##    ##  '#,     ,#' ,#      #,         ##   #,  ,#        
             '#######'   ##     ##  '#######'  #'      '#     #####' # '####'        



                  #######################################################
                  #                        -***-                        #
                  #          Department of theory and spectroscopy      #
                  #    Directorship and core code : Frank Neese         #
                  #        Max Planck Institute fuer Kohlenforschung    #
                  #                Kaiser Wilhelm Platz 1               #
                  #                 D-45470 Muelheim/Ruhr               #
                  #                      Germany                        #
                  #                                                     #
                  #                  All rights reserved                #
                  #                        -***-                        #
                  #######################################################


                         Program Version 5.0.3 -  RELEASE  -


 With contributions from (in alphabetic order):
   Daniel Aravena         : Magnetic Suceptibility
   Michael Atanasov       : Ab Initio Ligand Field Theory (pilot matlab implementation)
   Alexander A. Auer      : GIAO ZORA, VPT2 properties, NMR spectrum
   Ute Becker             : Parallelization
   Giovanni Bistoni       : ED, misc. LED, open-shell LED, HFLD
   Martin Brehm           : Molecular dynamics
   Dmytro Bykov           : SCF Hessian
   Vijay G. Chilkuri      : MRCI spin determinant printing, contributions to CSF-ICE
   Dipayan Datta          : RHF DLPNO-CCSD density
   Achintya Kumar Dutta   : EOM-CC, STEOM-CC
   Dmitry Ganyushin       : Spin-Orbit,Spin-Spin,Magnetic field MRCI
   Miquel Garcia          : C-PCM and meta-GGA Hessian, CC/C-PCM, Gaussian charge scheme
   Yang Guo               : DLPNO-NEVPT2, F12-NEVPT2, CIM, IAO-localization
   Andreas Hansen         : Spin unrestricted coupled pair/coupled cluster methods
   Benjamin Helmich-Paris : MC-RPA, TRAH-SCF, COSX integrals
   Lee Huntington         : MR-EOM, pCC
   Robert Izsak           : Overlap fitted RIJCOSX, COSX-SCS-MP3, EOM
   Marcus Kettner         : VPT2
   Christian Kollmar      : KDIIS, OOCD, Brueckner-CCSD(T), CCSD density, CASPT2, CASPT2-K
   Simone Kossmann        : Meta GGA functionals, TD-DFT gradient, OOMP2, MP2 Hessian
   Martin Krupicka        : Initial AUTO-CI
   Lucas Lang             : DCDCAS
   Marvin Lechner         : AUTO-CI (C++ implementation), FIC-MRCC
   Dagmar Lenk            : GEPOL surface, SMD
   Dimitrios Liakos       : Extrapolation schemes; Compound Job, initial MDCI parallelization
   Dimitrios Manganas     : Further ROCIS development; embedding schemes
   Dimitrios Pantazis     : SARC Basis sets
   Anastasios Papadopoulos: AUTO-CI, single reference methods and gradients
   Taras Petrenko         : DFT Hessian,TD-DFT gradient, ASA, ECA, R-Raman, ABS, FL, XAS/XES, NRVS
   Peter Pinski           : DLPNO-MP2, DLPNO-MP2 Gradient
   Christoph Reimann      : Effective Core Potentials
   Marius Retegan         : Local ZFS, SOC
   Christoph Riplinger    : Optimizer, TS searches, QM/MM, DLPNO-CCSD(T), (RO)-DLPNO pert. Triples
   Tobias Risthaus        : Range-separated hybrids, TD-DFT gradient, RPA, STAB
   Michael Roemelt        : Original ROCIS implementation
   Masaaki Saitow         : Open-shell DLPNO-CCSD energy and density
   Barbara Sandhoefer     : DKH picture change effects
   Avijit Sen             : IP-ROCIS
   Kantharuban Sivalingam : CASSCF convergence, NEVPT2, FIC-MRCI
   Bernardo de Souza      : ESD, SOC TD-DFT
   Georgi Stoychev        : AutoAux, RI-MP2 NMR, DLPNO-MP2 response
   Willem Van den Heuvel  : Paramagnetic NMR
   Boris Wezisla          : Elementary symmetry handling
   Frank Wennmohs         : Technical directorship


 We gratefully acknowledge several colleagues who have allowed us to
 interface, adapt or use parts of their codes:
   Stefan Grimme, W. Hujo, H. Kruse, P. Pracht,  : VdW corrections, initial TS optimization,
                  C. Bannwarth, S. Ehlert          DFT functionals, gCP, sTDA/sTD-DF
   Ed Valeev, F. Pavosevic, A. Kumar             : LibInt (2-el integral package), F12 methods
   Garnet Chan, S. Sharma, J. Yang, R. Olivares  : DMRG
   Ulf Ekstrom                                   : XCFun DFT Library
   Mihaly Kallay                                 : mrcc  (arbitrary order and MRCC methods)
   Jiri Pittner, Ondrej Demel                    : Mk-CCSD
   Frank Weinhold                                : gennbo (NPA and NBO analysis)
   Christopher J. Cramer and Donald G. Truhlar   : smd solvation model
   Lars Goerigk                                  : TD-DFT with DH, B97 family of functionals
   V. Asgeirsson, H. Jonsson                     : NEB implementation
   FAccTs GmbH                                   : IRC, NEB, NEB-TS, DLPNO-Multilevel, CI-OPT
                                                   MM, QMMM, 2- and 3-layer-ONIOM, Crystal-QMMM,
                                                   LR-CPCM, SF, NACMEs, symmetry and pop. for TD-DFT,
                                                   nearIR, NL-DFT gradient (VV10), updates on ESD,
                                                   ML-optimized integration grids
   S Lehtola, MJT Oliveira, MAL Marques          : LibXC Library
   Liviu Ungur et al                             : ANISO software


 Your calculation uses the libint2 library for the computation of 2-el integrals
 For citations please refer to: http://libint.valeyev.net

 Your ORCA version has been built with support for libXC version: 5.1.0
 For citations please refer to: https://tddft.org/programs/libxc/

 This ORCA versions uses:
   CBLAS   interface :  Fast vector & matrix operations
   LAPACKE interface :  Fast linear algebra routines
   SCALAPACK package :  Parallel linear algebra routines
   Shared memory     :  Shared parallel matrices
   BLAS/LAPACK       :  OpenBLAS 0.3.15  USE64BITINT DYNAMIC_ARCH NO_AFFINITY Haswell SINGLE_THREADED
        Core in use  :  Haswell
   Copyright (c) 2011-2014, The OpenBLAS Project




***************************************
The coordinates will be read from file: 5.xyz
***************************************


Your calculation utilizes the geometrical counterpoise correction gCP
Please cite in your paper:
H.Kruse, S. Grimme J.Chem.Phys., 136, (2012), 154101 
   

Your calculation utilizes the atom-pairwise dispersion correction
with the Becke-Johnson damping scheme (D3BJ)
Cite in your paper:
S.Grimme, S.Ehrlich, L.Goerigk, J Comput Chem, (2011), 32, 1456–1465 
S.Grimme, J.Antony, S.Ehrlich and H.Krieg, J.Chem.Phys., 132, (2010), 154104 
   

Your calculation employs the composite approach PBEh-3c.
Please cite in your paper:
S. Grimme, J. G. Brandenburg, C. Bannwarth, A. Hansen J.Chem.Phys., 143, (2015), 054107 
   

================================================================================

----- Orbital basis set information -----
Your calculation utilizes the basis: def2-mSVP

----- AuxJ basis set information -----
Your calculation utilizes the auxiliary basis: def2/J
   F. Weigend, Phys. Chem. Chem. Phys. 8, 1057 (2006).

================================================================================
                                        WARNINGS
                       Please study these warnings very carefully!
================================================================================


INFO   : the flag for use of the SHARK integral package has been found!

================================================================================
                                       INPUT FILE
================================================================================
NAME = pbeh-3c.inp
|  1> ! PBEh-3c def2/J TightSCF DefGrid3
|  2> 
|  3> %maxcore 60000
|  4> 
|  5> %pal
|  6> nprocs 4
|  7> end
|  8> 
|  9> *xyzfile 0 1 5.xyz
| 10> 
| 11>                          ****END OF INPUT****
================================================================================

                       ****************************
                       * Single Point Calculation *
                       ****************************

---------------------------------
CARTESIAN COORDINATES (ANGSTROEM)
---------------------------------
  P     -0.207821    1.767449    0.000000
  Cl     1.091282    1.967620    1.582561
  Cl     1.091282    1.967620   -1.582561
  Cl    -1.091282    3.623722    0.000000
  P      0.207821   -1.767449    0.000000
  Cl    -1.091282   -1.967620    1.582561
  Cl    -1.091282   -1.967620   -1.582561
  Cl     1.091282   -3.623722    0.000000

----------------------------
CARTESIAN COORDINATES (A.U.)
----------------------------
  NO LB      ZA    FRAG     MASS         X           Y           Z
   0 P    15.0000    0    30.974   -0.392725    3.339995    0.000000
   1 Cl   17.0000    0    35.453    2.062224    3.718263    2.990607
   2 Cl   17.0000    0    35.453    2.062224    3.718263   -2.990607
   3 Cl   17.0000    0    35.453   -2.062224    6.847842    0.000000
   4 P    15.0000    0    30.974    0.392725   -3.339995    0.000000
   5 Cl   17.0000    0    35.453   -2.062224   -3.718263    2.990607
   6 Cl   17.0000    0    35.453   -2.062224   -3.718263   -2.990607
   7 Cl   17.0000    0    35.453    2.062224   -6.847842    0.000000

--------------------------------
INTERNAL COORDINATES (ANGSTROEM)
--------------------------------
 P      0   0   0     0.000000000000     0.00000000     0.00000000
 Cl     1   0   0     2.057239984195     0.00000000     0.00000000
 Cl     1   2   0     2.057239984195   100.57571496     0.00000000
 Cl     1   2   3     2.055785200124   100.57463749   257.01074134
 P      1   2   3     3.559250221966    91.31174339    91.57979757
 Cl     5   1   2     2.057239984195    91.31174339    79.38811290
 Cl     5   1   2     2.057239984195    91.31174339   180.00000000
 Cl     5   1   2     2.055785200124   161.25488215   309.69405645

---------------------------
INTERNAL COORDINATES (A.U.)
---------------------------
 P      0   0   0     0.000000000000     0.00000000     0.00000000
 Cl     1   0   0     3.887620161881     0.00000000     0.00000000
 Cl     1   2   0     3.887620161881   100.57571496     0.00000000
 Cl     1   2   3     3.884871018403   100.57463749   257.01074134
 P      1   2   3     6.726008161615    91.31174339    91.57979757
 Cl     5   1   2     3.887620161881    91.31174339    79.38811290
 Cl     5   1   2     3.887620161881    91.31174339   180.00000000
 Cl     5   1   2     3.884871018403   161.25488215   309.69405645

---------------------
BASIS SET INFORMATION
---------------------
There are 2 groups of distinct atoms

 Group   1 Type P   : 10s7p1d contracted to 4s3p1d pattern {5311/511/1}
 Group   2 Type Cl  : 10s7p1d contracted to 4s3p1d pattern {5311/511/1}

Atom   0P    basis set group =>   1
Atom   1Cl   basis set group =>   2
Atom   2Cl   basis set group =>   2
Atom   3Cl   basis set group =>   2
Atom   4P    basis set group =>   1
Atom   5Cl   basis set group =>   2
Atom   6Cl   basis set group =>   2
Atom   7Cl   basis set group =>   2
---------------------------------
AUXILIARY/J BASIS SET INFORMATION
---------------------------------
There are 2 groups of distinct atoms

 Group   1 Type P   : 14s5p5d2f1g contracted to 8s4p3d1f1g pattern {71111111/2111/311/2/1}
 Group   2 Type Cl  : 14s5p5d2f1g contracted to 8s4p3d1f1g pattern {71111111/2111/311/2/1}

Atom   0P    basis set group =>   1
Atom   1Cl   basis set group =>   2
Atom   2Cl   basis set group =>   2
Atom   3Cl   basis set group =>   2
Atom   4P    basis set group =>   1
Atom   5Cl   basis set group =>   2
Atom   6Cl   basis set group =>   2
Atom   7Cl   basis set group =>   2


           ************************************************************
           *        Program running with 4 parallel MPI-processes     *
           *              working on a common directory               *
           ************************************************************
------------------------------------------------------------------------------
                           ORCA GTO INTEGRAL CALCULATION
                           -- RI-GTO INTEGRALS CHOSEN --
------------------------------------------------------------------------------
------------------------------------------------------------------------------
                   ___                                                        
                  /   \      - P O W E R E D   B Y -                         
                 /     \                                                     
                 |  |  |   _    _      __       _____    __    __             
                 |  |  |  | |  | |    /  \     |  _  \  |  |  /  |          
                  \  \/   | |  | |   /    \    | | | |  |  | /  /          
                 / \  \   | |__| |  /  /\  \   | |_| |  |  |/  /          
                |  |  |   |  __  | /  /__\  \  |    /   |      \           
                |  |  |   | |  | | |   __   |  |    \   |  |\   \          
                \     /   | |  | | |  |  |  |  | |\  \  |  | \   \       
                 \___/    |_|  |_| |__|  |__|  |_| \__\ |__|  \__/        
                                                                              
                      - O R C A' S   B I G   F R I E N D -                    
                                      &                                       
                       - I N T E G R A L  F E E D E R -                       
                                                                              
 v1 FN, 2020, v2 2021                                                         
------------------------------------------------------------------------------


Reading SHARK input file pbeh-3c.SHARKINP.tmp ... ok
----------------------
SHARK INTEGRAL PACKAGE
----------------------

Number of atoms                             ...      8
Number of basis functions                   ...    144
Number of shells                            ...     64
Maximum angular momentum                    ...      2
Integral batch strategy                     ... SHARK/LIBINT Hybrid
RI-J (if used) integral strategy            ... SPLIT-RIJ (Revised 2003 algorithm where possible)
Printlevel                                  ...      1
Contraction scheme used                     ... SEGMENTED contraction
Coulomb Range Separation                    ... NOT USED
Exchange Range Separation                   ... NOT USED
Finite Nucleus Model                        ... NOT USED
Auxiliary Coulomb fitting basis             ... AVAILABLE
   # of basis functions in Aux-J            ...    408
   # of shells in Aux-J                     ...    136
   Maximum angular momentum in Aux-J        ...      4
Auxiliary J/K fitting basis                 ... NOT available
Auxiliary Correlation fitting basis         ... NOT available
Auxiliary 'external' fitting basis          ... NOT available
Integral threshold                          ...     2.500000e-11
Primitive cut-off                           ...     2.500000e-12
Primitive pair pre-selection threshold      ...     2.500000e-12

Calculating pre-screening integrals         ... done (  0.0 sec) Dimension = 64
Organizing shell pair data                  ... done (  0.2 sec)
Shell pair information
Total number of shell pairs                 ...      2080
Shell pairs after pre-screening             ...      1557
Total number of primitive shell pairs       ...     10624
Primitive shell pairs kept                  ...      4913
          la=0 lb=0:    371 shell pairs
          la=1 lb=0:    566 shell pairs
          la=1 lb=1:    239 shell pairs
          la=2 lb=0:    198 shell pairs
          la=2 lb=1:    154 shell pairs
          la=2 lb=2:     29 shell pairs

Calculating one electron integrals          ... done (  0.0 sec)
Calculating RI/J V-Matrix + Cholesky decomp.... done (  0.4 sec)
Calculating Nuclear repulsion               ... done (  0.0 sec) ENN=   1144.801216166508 Eh

SHARK setup successfully completed in   1.5 seconds

Maximum memory used throughout the entire GTOINT-calculation: 10.5 MB


           ************************************************************
           *        Program running with 4 parallel MPI-processes     *
           *              working on a common directory               *
           ************************************************************
-------------------------------------------------------------------------------
                                 ORCA SCF
-------------------------------------------------------------------------------

------------
SCF SETTINGS
------------
Hamiltonian:
 Density Functional     Method          .... DFT(GTOs)
 Exchange Functional    Exchange        .... PBE
   PBE kappa parameter   XKappa         ....  1.024500
   PBE mue parameter    XMuePBE         ....  0.123457
 Correlation Functional Correlation     .... PBE
   PBE beta parameter  CBetaPBE         ....  0.030000
 LDA part of GGA corr.  LDAOpt          .... PW91-LDA
 Gradients option       PostSCFGGA      .... off
 Hybrid DFT is turned on
   Fraction HF Exchange ScalHFX         ....  0.420000
   Scaling of DF-GGA-X  ScalDFX         ....  0.580000
   Scaling of DF-GGA-C  ScalDFC         ....  1.000000
   Scaling of DF-LDA-C  ScalLDAC        ....  1.000000
   Perturbative correction              ....  0.000000
   Density functional embedding theory  .... OFF
 RI-approximation to the Coulomb term is turned on
   Number of AuxJ basis functions       .... 408
   RIJ-ON(X) (HFX calculated with O(N)) .... on
   Number of AuxJ basis functions       .... 408
   RIJ-COSX (HFX calculated with COS-X)).... on


General Settings:
 Integral files         IntName         .... pbeh-3c
 Hartree-Fock type      HFTyp           .... RHF
 Total Charge           Charge          ....    0
 Multiplicity           Mult            ....    1
 Number of Electrons    NEL             ....  132
 Basis Dimension        Dim             ....  144
 Nuclear Repulsion      ENuc            ....   1144.8012161665 Eh

Convergence Acceleration:
 DIIS                   CNVDIIS         .... on
   Start iteration      DIISMaxIt       ....    12
   Startup error        DIISStart       ....  0.200000
   # of expansion vecs  DIISMaxEq       ....     5
   Bias factor          DIISBfac        ....   1.050
   Max. coefficient     DIISMaxC        ....  10.000
 Trust-Rad. Augm. Hess. CNVTRAH         .... auto
   Auto Start mean grad. ratio tolernc. ....  1.125000
   Auto Start start iteration           ....    20
   Auto Start num. interpolation iter.  ....    10
   Max. Number of Micro iterations      ....    16
   Max. Number of Macro iterations      .... Maxiter - #DIIS iter
   Number of Davidson start vectors     ....     2
   Converg. threshold I  (grad. norm)   ....   1.000e-05
   Converg. threshold II (energy diff.) ....   1.000e-08
   Grad. Scal. Fac. for Micro threshold ....   0.100
   Minimum threshold for Micro iter.    ....   0.010
   NR start threshold (gradient norm)   ....   0.001
   Initial trust radius                 ....   0.400
   Minimum AH scaling param. (alpha)    ....   1.000
   Maximum AH scaling param. (alpha)    .... 1000.000
   Orbital update algorithm             .... Taylor
   White noise on init. David. guess    .... on
   Maximum white noise                  ....   0.010
   Quad. conv. algorithm                .... NR
   COSX micro iterations for RIJONX calc.... off
 SOSCF                  CNVSOSCF        .... on
   Start iteration      SOSCFMaxIt      ....   150
   Startup grad/error   SOSCFStart      ....  0.003300
 Level Shifting         CNVShift        .... on
   Level shift para.    LevelShift      ....    0.2500
   Turn off err/grad.   ShiftErr        ....    0.0010
 Zerner damping         CNVZerner       .... off
 Static damping         CNVDamp         .... on
   Fraction old density DampFac         ....    0.7000
   Max. Damping (<1)    DampMax         ....    0.9800
   Min. Damping (>=0)   DampMin         ....    0.0000
   Turn off err/grad.   DampErr         ....    0.1000
 Fernandez-Rico         CNVRico         .... off

SCF Procedure:
 Maximum # iterations   MaxIter         ....   125
 SCF integral mode      SCFMode         .... Direct
   Integral package                     .... SHARK and LIBINT hybrid scheme
 Reset frequency        DirectResetFreq ....    20
 Integral Threshold     Thresh          ....  2.500e-11 Eh
 Primitive CutOff       TCut            ....  2.500e-12 Eh

Convergence Tolerance:
 Convergence Check Mode ConvCheckMode   .... Total+1el-Energy
 Convergence forced     ConvForced      .... 0
 Energy Change          TolE            ....  1.000e-08 Eh
 1-El. energy change                    ....  1.000e-05 Eh
 Orbital Gradient       TolG            ....  1.000e-05
 Orbital Rotation angle TolX            ....  1.000e-05
 DIIS Error             TolErr          ....  5.000e-07


Diagonalization of the overlap matrix:
Smallest eigenvalue                        ... 9.145e-03
Time for diagonalization                   ...    0.004 sec
Threshold for overlap eigenvalues          ... 1.000e-08
Number of eigenvalues below threshold      ... 0
Time for construction of square roots      ...    0.170 sec
Total time needed                          ...    0.226 sec

--------------------------------
INITIAL GUESS: MINIMAL BASIS EHT
--------------------------------
The minimal basis has 72 functions
EHT matrix was diagonalized
Basis set overlap was calculated now projecting the orbitals
Using GuessMode=FMatrix for the initial guess
C*T matrix was formed
Effective Fockian was calculated
Effective Fockian was diagonalized
Initial density was built
                      ------------------
                      INITIAL GUESS DONE
                      ------------------
-------------------
DFT GRID GENERATION
-------------------

General Integration Accuracy     IntAcc      ... 4.959
Radial Grid Type                 RadialGrid  ... OptM3 with GC (2021)
Angular Grid (max. ang.)         AngularGrid ... 6 (Lebedev-590)
Angular grid pruning method      GridPruning ... 4 (adaptive)
Weight generation scheme         WeightScheme... Becke
Basis function cutoff            BFCut       ... 1.0000e-11
Integration weight cutoff        WCut        ... 1.0000e-14
Angular grids for H and He will be reduced by one unit
Partially contracted basis set               ... off
Rotationally invariant grid construction     ... off

Total number of grid points                  ...   129954
Total number of batches                      ...     2036
Average number of points per batch           ...       63
Average number of grid points per atom       ...    16244
Time for grid setup =    2.981 sec

--------------------
COSX GRID GENERATION
--------------------

GRIDX 1
-------
General Integration Accuracy     IntAcc      ... 4.020
Radial Grid Type                 RadialGrid  ... OptM3 with GC (2021)
Angular Grid (max. ang.)         AngularGrid ... 2 (Lebedev-110)
Angular grid pruning method      GridPruning ... 4 (adaptive)
Weight generation scheme         WeightScheme... Becke
Basis function cutoff            BFCut       ... 1.0000e-11
Integration weight cutoff        WCut        ... 1.0000e-14
Angular grids for H and He will be reduced by one unit
Partially contracted basis set               ... on
Rotationally invariant grid construction     ... off

Total number of grid points                  ...    15738
Total number of batches                      ...      250
Average number of points per batch           ...       62
Average number of grid points per atom       ...     1967
UseSFitting                                  ... on

GRIDX 2
-------
General Integration Accuracy     IntAcc      ... 4.338
Radial Grid Type                 RadialGrid  ... OptM3 with GC (2021)
Angular Grid (max. ang.)         AngularGrid ... 3 (Lebedev-194)
Angular grid pruning method      GridPruning ... 4 (adaptive)
Weight generation scheme         WeightScheme... Becke
Basis function cutoff            BFCut       ... 1.0000e-11
Integration weight cutoff        WCut        ... 1.0000e-14
Angular grids for H and He will be reduced by one unit
Partially contracted basis set               ... on
Rotationally invariant grid construction     ... off

Total number of grid points                  ...    39780
Total number of batches                      ...      626
Average number of points per batch           ...       63
Average number of grid points per atom       ...     4972
UseSFitting                                  ... on

GRIDX 3
-------
General Integration Accuracy     IntAcc      ... 4.871
Radial Grid Type                 RadialGrid  ... OptM3 with GC (2021)
Angular Grid (max. ang.)         AngularGrid ... 4 (Lebedev-302)
Angular grid pruning method      GridPruning ... 4 (adaptive)
Weight generation scheme         WeightScheme... Becke
Basis function cutoff            BFCut       ... 1.0000e-11
Integration weight cutoff        WCut        ... 1.0000e-14
Angular grids for H and He will be reduced by one unit
Partially contracted basis set               ... on
Rotationally invariant grid construction     ... off

Total number of grid points                  ...    68120
Total number of batches                      ...     1066
Average number of points per batch           ...       63
Average number of grid points per atom       ...     8515
UseSFitting                                  ... on

Time for X-Grid setup             =    3.664 sec

--------------
SCF ITERATIONS
--------------
ITER       Energy         Delta-E        Max-DP      RMS-DP      [F,P]     Damp
               ***  Starting incremental Fock matrix formation  ***
  0  -3438.3493725554   0.000000000000 0.13063988  0.00581371  0.4069143 0.7000
  1  -3438.9614877579  -0.612115202528 0.10604543  0.00426894  0.2869667 0.7000
                               ***Turning on DIIS***
  2  -3439.3427467276  -0.381258969652 0.09307880  0.00313164  0.1985048 0.7000
  3  -3439.6058626615  -0.263115933943 0.08655055  0.00256466  0.1353728 0.7000
  4  -3439.7934660032  -0.187603341656 0.22006647  0.00658543  0.0922133 0.0000
  5  -3440.2432281014  -0.449762098210 0.04582132  0.00073466  0.0055980 0.0000
  6  -3440.2447552390  -0.001527137604 0.00830829  0.00031169  0.0044411 0.0000
  7  -3440.2452192211  -0.000463982148 0.00988826  0.00024833  0.0014783 0.0000
                      *** Initiating the SOSCF procedure ***
                           *** Shutting down DIIS ***
                      *** Re-Reading the Fockian *** 
                      *** Removing any level shift *** 
ITER      Energy       Delta-E        Grad      Rot      Max-DP    RMS-DP
  8  -3440.24538019  -0.0001609651  0.001825  0.001825  0.008197  0.000235
               *** Restarting incremental Fock matrix formation ***
  9  -3440.24543985  -0.0000596627  0.000145  0.000468  0.000561  0.000022
 10  -3440.24544043  -0.0000005815  0.000126  0.000205  0.000232  0.000010
 11  -3440.24544076  -0.0000003257  0.000027  0.000034  0.000175  0.000003
 12  -3440.24544077  -0.0000000143  0.000016  0.000016  0.000038  0.000001
                  ***Gradient check signals convergence***
              ***Rediagonalizing the Fockian in SOSCF/NRSCF***

               *****************************************************
               *                     SUCCESS                       *
               *           SCF CONVERGED AFTER  13 CYCLES          *
               *****************************************************

Old exchange energy                            =    -88.458755953 Eh
New exchange energy                            =    -88.458781355 Eh
Exchange energy change after final integration =     -0.000025402 Eh
Total energy after final integration           =  -3440.245466178 Eh
Final COS-X integration done in                =     2.627 sec

----------------
TOTAL SCF ENERGY
----------------

Total Energy       :        -3440.24546618 Eh          -93613.83837 eV

Components:
Nuclear Repulsion  :         1144.80121617 Eh           31151.62481 eV
Electronic Energy  :        -4585.04668234 Eh         -124765.46318 eV
One Electron Energy:        -7038.23781369 Eh         -191520.18761 eV
Two Electron Energy:         2453.19113135 Eh           66754.72443 eV
Max COSX asymmetry :            0.00000234 Eh               0.00006 eV

Virial components:
Potential Energy   :        -6876.28207315 Eh         -187113.14786 eV
Kinetic Energy     :         3436.03660698 Eh           93499.30949 eV
Virial Ratio       :            2.00122492


DFT components:
N(Alpha)           :       65.999999996194 electrons
N(Beta)            :       65.999999996194 electrons
N(Total)           :      131.999999992388 electrons
E(X)               :     -118.085586310166 Eh       
E(C)               :       -6.860253368252 Eh       
E(XC)              :     -124.945839678418 Eh       
DFET-embed. en.    :        0.000000000000 Eh       

---------------
SCF CONVERGENCE
---------------

  Last Energy change         ...   -5.7121e-09  Tolerance :   1.0000e-08
  Last MAX-Density change    ...    4.4409e-15  Tolerance :   1.0000e-07
  Last RMS-Density change    ...    1.2517e-16  Tolerance :   5.0000e-09
  Last Orbital Gradient      ...    1.4284e-06  Tolerance :   1.0000e-05
  Last Orbital Rotation      ...    2.6669e-06  Tolerance :   1.0000e-05

             **** THE GBW FILE WAS UPDATED (pbeh-3c.gbw) ****
             **** DENSITY pbeh-3c.scfp WAS UPDATED ****
             **** ENERGY FILE WAS UPDATED (pbeh-3c.en.tmp) ****
             **** THE GBW FILE WAS UPDATED (pbeh-3c.gbw) ****
             **** DENSITY pbeh-3c.scfp WAS UPDATED ****
----------------
ORBITAL ENERGIES
----------------

  NO   OCC          E(Eh)            E(eV) 
   0   2.0000    -102.331903     -2784.5927 
   1   2.0000    -102.331902     -2784.5926 
   2   2.0000    -102.331730     -2784.5879 
   3   2.0000    -102.331728     -2784.5879 
   4   2.0000    -102.331723     -2784.5878 
   5   2.0000    -102.331712     -2784.5874 
   6   2.0000     -77.890302     -2119.5029 
   7   2.0000     -77.890234     -2119.5010 
   8   2.0000      -9.800306      -266.6799 
   9   2.0000      -9.800305      -266.6799 
  10   2.0000      -9.800057      -266.6731 
  11   2.0000      -9.800053      -266.6730 
  12   2.0000      -9.800048      -266.6729 
  13   2.0000      -9.800046      -266.6728 
  14   2.0000      -7.487248      -203.7384 
  15   2.0000      -7.487247      -203.7384 
  16   2.0000      -7.486956      -203.7304 
  17   2.0000      -7.486954      -203.7304 
  18   2.0000      -7.486953      -203.7304 
  19   2.0000      -7.486952      -203.7303 
  20   2.0000      -7.479833      -203.5366 
  21   2.0000      -7.479833      -203.5366 
  22   2.0000      -7.479593      -203.5301 
  23   2.0000      -7.479591      -203.5300 
  24   2.0000      -7.479581      -203.5297 
  25   2.0000      -7.479580      -203.5297 
  26   2.0000      -7.479509      -203.5278 
  27   2.0000      -7.479508      -203.5278 
  28   2.0000      -7.479318      -203.5226 
  29   2.0000      -7.479318      -203.5226 
  30   2.0000      -7.479311      -203.5224 
  31   2.0000      -7.479310      -203.5224 
  32   2.0000      -6.955581      -189.2710 
  33   2.0000      -6.955550      -189.2701 
  34   2.0000      -5.045391      -137.2921 
  35   2.0000      -5.045377      -137.2917 
  36   2.0000      -5.045371      -137.2915 
  37   2.0000      -5.045347      -137.2909 
  38   2.0000      -5.042392      -137.2105 
  39   2.0000      -5.042388      -137.2103 
  40   2.0000      -1.007848       -27.4249 
  41   2.0000      -1.006597       -27.3909 
  42   2.0000      -0.937836       -25.5198 
  43   2.0000      -0.937819       -25.5193 
  44   2.0000      -0.937526       -25.5114 
  45   2.0000      -0.937165       -25.5016 
  46   2.0000      -0.689183       -18.7536 
  47   2.0000      -0.684640       -18.6300 
  48   2.0000      -0.522120       -14.2076 
  49   2.0000      -0.520062       -14.1516 
  50   2.0000      -0.519356       -14.1324 
  51   2.0000      -0.518962       -14.1217 
  52   2.0000      -0.488851       -13.3023 
  53   2.0000      -0.471822       -12.8389 
  54   2.0000      -0.427961       -11.6454 
  55   2.0000      -0.426591       -11.6081 
  56   2.0000      -0.426581       -11.6078 
  57   2.0000      -0.425716       -11.5843 
  58   2.0000      -0.394386       -10.7318 
  59   2.0000      -0.393854       -10.7173 
  60   2.0000      -0.392312       -10.6754 
  61   2.0000      -0.391011       -10.6399 
  62   2.0000      -0.382854       -10.4180 
  63   2.0000      -0.382755       -10.4153 
  64   2.0000      -0.344819        -9.3830 
  65   2.0000      -0.333281        -9.0690 
  66   0.0000      -0.048644        -1.3237 
  67   0.0000      -0.029477        -0.8021 
  68   0.0000      -0.024835        -0.6758 
  69   0.0000      -0.023149        -0.6299 
  70   0.0000      -0.020119        -0.5475 
  71   0.0000       0.004033         0.1098 
  72   0.0000       0.241179         6.5628 
  73   0.0000       0.313645         8.5347 
  74   0.0000       0.369236        10.0474 
  75   0.0000       0.371873        10.1192 
  76   0.0000       0.398107        10.8330 
  77   0.0000       0.406278        11.0554 
  78   0.0000       0.416854        11.3432 
  79   0.0000       0.418008        11.3746 
  80   0.0000       0.423877        11.5343 
  81   0.0000       0.424371        11.5477 
  82   0.0000       0.458956        12.4888 
  83   0.0000       0.459081        12.4922 
  84   0.0000       0.522592        14.2204 
  85   0.0000       0.542993        14.7756 
  86   0.0000       0.545239        14.8367 
  87   0.0000       0.546649        14.8751 
  88   0.0000       0.551508        15.0073 
  89   0.0000       0.573902        15.6167 
  90   0.0000       0.693830        18.8801 
  91   0.0000       0.695458        18.9244 
  92   0.0000       0.707167        19.2430 
  93   0.0000       0.712802        19.3963 
  94   0.0000       0.740140        20.1402 
  95   0.0000       0.763309        20.7707 
  96   0.0000       0.765841        20.8396 
  97   0.0000       0.765866        20.8403 
  98   0.0000       0.784053        21.3352 
  99   0.0000       0.785893        21.3852 
 100   0.0000       0.788134        21.4462 
 101   0.0000       0.793509        21.5925 
 102   0.0000       0.799658        21.7598 
 103   0.0000       0.799730        21.7618 
 104   0.0000       0.800325        21.7779 
 105   0.0000       0.800740        21.7892 
 106   0.0000       0.800970        21.7955 
 107   0.0000       0.801109        21.7993 
 108   0.0000       0.801150        21.8004 
 109   0.0000       0.801172        21.8010 
 110   0.0000       0.810118        22.0444 
 111   0.0000       0.810754        22.0617 
 112   0.0000       0.812439        22.1076 
 113   0.0000       0.813210        22.1286 
 114   0.0000       0.815410        22.1884 
 115   0.0000       0.860243        23.4084 
 116   0.0000       0.861193        23.4343 
 117   0.0000       0.861936        23.4545 
 118   0.0000       0.866435        23.5769 
 119   0.0000       0.869798        23.6684 
 120   0.0000       0.871514        23.7151 
 121   0.0000       0.903248        24.5786 
 122   0.0000       0.969775        26.3889 
 123   0.0000       0.973982        26.5034 
 124   0.0000       0.981093        26.6969 
 125   0.0000       0.989518        26.9261 
 126   0.0000       0.990460        26.9518 
 127   0.0000       0.995080        27.0775 
 128   0.0000       1.002232        27.2721 
 129   0.0000       1.003826        27.3155 
 130   0.0000       1.019766        27.7493 
 131   0.0000       1.020276        27.7631 
 132   0.0000       1.085870        29.5480 
 133   0.0000       1.091856        29.7109 
 134   0.0000       1.097663        29.8689 
 135   0.0000       1.109069        30.1793 
 136   0.0000       1.119533        30.4640 
 137   0.0000       1.166250        31.7353 
 138   0.0000       1.382418        37.6175 
 139   0.0000       1.400718        38.1155 
 140   0.0000       1.407805        38.3083 
 141   0.0000       1.432021        38.9673 
 142   0.0000       1.456494        39.6332 
 143   0.0000       1.480212        40.2786 

                    ********************************
                    * MULLIKEN POPULATION ANALYSIS *
                    ********************************

-----------------------
MULLIKEN ATOMIC CHARGES
-----------------------
   0 P :    0.595289
   1 Cl:   -0.200956
   2 Cl:   -0.200956
   3 Cl:   -0.193376
   4 P :    0.595289
   5 Cl:   -0.200956
   6 Cl:   -0.200956
   7 Cl:   -0.193376
Sum of atomic charges:   -0.0000000

--------------------------------
MULLIKEN REDUCED ORBITAL CHARGES
--------------------------------
  0 P s       :     5.709829  s :     5.709829
      pz      :     2.649836  p :     8.427554
      px      :     2.819618
      py      :     2.958100
      dz2     :     0.056461  d :     0.267328
      dxz     :     0.078019
      dyz     :     0.038485
      dx2y2   :     0.048170
      dxy     :     0.046192
  1 Cls       :     5.958089  s :     5.958089
      pz      :     3.586135  p :    11.215315
      px      :     3.708036
      py      :     3.921144
      dz2     :     0.006217  d :     0.027552
      dxz     :     0.012640
      dyz     :     0.003153
      dx2y2   :     0.003064
      dxy     :     0.002476
  2 Cls       :     5.958089  s :     5.958089
      pz      :     3.586135  p :    11.215315
      px      :     3.708036
      py      :     3.921144
      dz2     :     0.006217  d :     0.027552
      dxz     :     0.012640
      dyz     :     0.003153
      dx2y2   :     0.003064
      dxy     :     0.002476
  3 Cls       :     5.956799  s :     5.956799
      pz      :     3.910780  p :    11.208953
      px      :     3.810790
      py      :     3.487384
      dz2     :     0.004459  d :     0.027623
      dxz     :     0.001259
      dyz     :     0.003411
      dx2y2   :     0.008604
      dxy     :     0.009889
  4 P s       :     5.709829  s :     5.709829
      pz      :     2.649836  p :     8.427554
      px      :     2.819618
      py      :     2.958100
      dz2     :     0.056461  d :     0.267328
      dxz     :     0.078019
      dyz     :     0.038485
      dx2y2   :     0.048170
      dxy     :     0.046192
  5 Cls       :     5.958089  s :     5.958089
      pz      :     3.586135  p :    11.215315
      px      :     3.708036
      py      :     3.921144
      dz2     :     0.006217  d :     0.027552
      dxz     :     0.012640
      dyz     :     0.003153
      dx2y2   :     0.003064
      dxy     :     0.002476
  6 Cls       :     5.958089  s :     5.958089
      pz      :     3.586135  p :    11.215315
      px      :     3.708036
      py      :     3.921144
      dz2     :     0.006217  d :     0.027552
      dxz     :     0.012640
      dyz     :     0.003153
      dx2y2   :     0.003064
      dxy     :     0.002476
  7 Cls       :     5.956799  s :     5.956799
      pz      :     3.910780  p :    11.208953
      px      :     3.810790
      py      :     3.487384
      dz2     :     0.004459  d :     0.027623
      dxz     :     0.001259
      dyz     :     0.003411
      dx2y2   :     0.008604
      dxy     :     0.009889


                     *******************************
                     * LOEWDIN POPULATION ANALYSIS *
                     *******************************

----------------------
LOEWDIN ATOMIC CHARGES
----------------------
   0 P :    0.276532
   1 Cl:   -0.093641
   2 Cl:   -0.093641
   3 Cl:   -0.089250
   4 P :    0.276532
   5 Cl:   -0.093641
   6 Cl:   -0.093641
   7 Cl:   -0.089250

-------------------------------
LOEWDIN REDUCED ORBITAL CHARGES
-------------------------------
  0 P s       :     5.660691  s :     5.660691
      pz      :     2.739046  p :     8.695181
      px      :     2.911346
      py      :     3.044789
      dz2     :     0.079223  d :     0.367596
      dxz     :     0.110876
      dyz     :     0.048483
      dx2y2   :     0.062713
      dxy     :     0.066301
  1 Cls       :     5.858347  s :     5.858347
      pz      :     3.586629  p :    11.203920
      px      :     3.702321
      py      :     3.914969
      dz2     :     0.006485  d :     0.031374
      dxz     :     0.015005
      dyz     :     0.003547
      dx2y2   :     0.003507
      dxy     :     0.002830
  2 Cls       :     5.858347  s :     5.858347
      pz      :     3.586629  p :    11.203920
      px      :     3.702321
      py      :     3.914969
      dz2     :     0.006485  d :     0.031374
      dxz     :     0.015005
      dyz     :     0.003547
      dx2y2   :     0.003507
      dxy     :     0.002830
  3 Cls       :     5.856971  s :     5.856971
      pz      :     3.902259  p :    11.200831
      px      :     3.810223
      py      :     3.488349
      dz2     :     0.005327  d :     0.031449
      dxz     :     0.001289
      dyz     :     0.003351
      dx2y2   :     0.010594
      dxy     :     0.010887
  4 P s       :     5.660691  s :     5.660691
      pz      :     2.739046  p :     8.695181
      px      :     2.911346
      py      :     3.044789
      dz2     :     0.079223  d :     0.367596
      dxz     :     0.110876
      dyz     :     0.048483
      dx2y2   :     0.062713
      dxy     :     0.066301
  5 Cls       :     5.858347  s :     5.858347
      pz      :     3.586629  p :    11.203920
      px      :     3.702321
      py      :     3.914969
      dz2     :     0.006485  d :     0.031374
      dxz     :     0.015005
      dyz     :     0.003547
      dx2y2   :     0.003507
      dxy     :     0.002830
  6 Cls       :     5.858347  s :     5.858347
      pz      :     3.586629  p :    11.203920
      px      :     3.702321
      py      :     3.914969
      dz2     :     0.006485  d :     0.031374
      dxz     :     0.015005
      dyz     :     0.003547
      dx2y2   :     0.003507
      dxy     :     0.002830
  7 Cls       :     5.856971  s :     5.856971
      pz      :     3.902259  p :    11.200831
      px      :     3.810223
      py      :     3.488349
      dz2     :     0.005327  d :     0.031449
      dxz     :     0.001289
      dyz     :     0.003351
      dx2y2   :     0.010594
      dxy     :     0.010887


                      *****************************
                      * MAYER POPULATION ANALYSIS *
                      *****************************

  NA   - Mulliken gross atomic population
  ZA   - Total nuclear charge
  QA   - Mulliken gross atomic charge
  VA   - Mayer's total valence
  BVA  - Mayer's bonded valence
  FA   - Mayer's free valence

  ATOM       NA         ZA         QA         VA         BVA        FA
  0 P     14.4047    15.0000     0.5953     3.1624     3.1624    -0.0000
  1 Cl    17.2010    17.0000    -0.2010     1.1411     1.1411    -0.0000
  2 Cl    17.2010    17.0000    -0.2010     1.1411     1.1411    -0.0000
  3 Cl    17.1934    17.0000    -0.1934     1.1488     1.1488    -0.0000
  4 P     14.4047    15.0000     0.5953     3.1624     3.1624    -0.0000
  5 Cl    17.2010    17.0000    -0.2010     1.1411     1.1411    -0.0000
  6 Cl    17.2010    17.0000    -0.2010     1.1411     1.1411    -0.0000
  7 Cl    17.1934    17.0000    -0.1934     1.1488     1.1488    -0.0000

  Mayer bond orders larger than 0.100000
B(  0-P ,  1-Cl) :   1.0391 B(  0-P ,  2-Cl) :   1.0391 B(  0-P ,  3-Cl) :   1.0483 
B(  4-P ,  5-Cl) :   1.0391 B(  4-P ,  6-Cl) :   1.0391 B(  4-P ,  7-Cl) :   1.0483 


-------
TIMINGS
-------

Total SCF time: 0 days 0 hours 1 min 15 sec 

Total time                  ....      75.717 sec
Sum of individual times     ....      69.534 sec  ( 91.8%)

Fock matrix formation       ....      57.391 sec  ( 75.8%)
  Split-RI-J                ....       6.477 sec  ( 11.3% of F)
  Chain of spheres X        ....      19.931 sec  ( 34.7% of F)
  XC integration            ....      15.634 sec  ( 27.2% of F)
    Basis function eval.    ....       1.656 sec  ( 10.6% of XC)
    Density eval.           ....       1.212 sec  (  7.8% of XC)
    XC-Functional eval.     ....       0.894 sec  (  5.7% of XC)
    XC-Potential eval.      ....       0.459 sec  (  2.9% of XC)
Diagonalization             ....       0.992 sec  (  1.3%)
Density matrix formation    ....       0.033 sec  (  0.0%)
Population analysis         ....       0.875 sec  (  1.2%)
Initial guess               ....       0.030 sec  (  0.0%)
Orbital Transformation      ....       0.000 sec  (  0.0%)
Orbital Orthonormalization  ....       0.000 sec  (  0.0%)
DIIS solution               ....       2.797 sec  (  3.7%)
SOSCF solution              ....       0.772 sec  (  1.0%)
Grid generation             ....       6.645 sec  (  8.8%)

Maximum memory used throughout the entire SCF-calculation: 52.1 MB


-------------------------------------------------------------------------------
                          DFT DISPERSION CORRECTION                            
                                                                               
                              DFTD3 V3.1  Rev 1                                
                          USING Becke-Johnson damping                          
-------------------------------------------------------------------------------
The PBEh-3c composite method is recognized
Using three-body term ABC
Active option DFTDOPT                   ...         4   

molecular C6(AA) [au] = 6639.700910 


            DFT-D V3
 parameters
 s6 scaling factor         :     1.0000 
 a1 scaling factor         :     0.4860 
 s8 scaling factor         :     0.0000 
 a2 scaling factor         :     4.5000 
 Damping factor alpha9(ATM):    16.0000 
 ad hoc parameters k1-k3   :    16.0000     1.3333    -4.0000 

 Edisp/kcal,au: -4.543744512263  -0.007240917015 
 E6   /kcal   :  -4.558772089 
 E8   /kcal   :  -0.000000000 
 E6(ABC)      :   0.015027577 
 % E8         :   0.000000000 
 % E6(ABC)    :  -0.330731120 

-------------------------   ----------------
Dispersion correction           -0.007240917
-------------------------   ----------------

------------------   -----------------
gCP correction             0.004864199
------------------   -----------------

-------------------------   --------------------
FINAL SINGLE POINT ENERGY     -3440.247842896470
-------------------------   --------------------


                            ***************************************
                            *     ORCA property calculations      *
                            ***************************************

                                    ---------------------
                                    Active property flags
                                    ---------------------
   (+) Dipole Moment


------------------------------------------------------------------------------
                       ORCA ELECTRIC PROPERTIES CALCULATION
------------------------------------------------------------------------------

Dipole Moment Calculation                       ... on
Quadrupole Moment Calculation                   ... off
Polarizability Calculation                      ... off
GBWName                                         ... pbeh-3c.gbw
Electron density                                ... pbeh-3c.scfp
The origin for moment calculation is the CENTER OF MASS  = ( 0.000000, -0.000000  0.000000)

-------------
DIPOLE MOMENT
-------------
                                X             Y             Z
Electronic contribution:     -0.00000       0.00000      -0.00000
Nuclear contribution   :      0.00000       0.00000       0.00000
                        -----------------------------------------
Total Dipole Moment    :     -0.00000       0.00000      -0.00000
                        -----------------------------------------
Magnitude (a.u.)       :      0.00000
Magnitude (Debye)      :      0.00000



--------------------
Rotational spectrum 
--------------------
 
Rotational constants in cm-1:     0.027583     0.008736     0.008309 
Rotational constants in MHz :   826.908465   261.903510   249.101593 

 Dipole components along the rotational axes: 
x,y,z [a.u.] :    -0.000000    -0.000000     0.000000 
x,y,z [Debye]:    -0.000000    -0.000000     0.000000 

 

Timings for individual modules:

Sum of individual times         ...       78.767 sec (=   1.313 min)
GTO integral calculation        ...        2.208 sec (=   0.037 min)   2.8 %
SCF iterations                  ...       76.559 sec (=   1.276 min)  97.2 %
                             ****ORCA TERMINATED NORMALLY****
TOTAL RUN TIME: 0 days 0 hours 1 minutes 27 seconds 350 msec
