
                                 *****************
                                 * O   R   C   A *
                                 *****************

                                            #,                                       
                                            ###                                      
                                            ####                                     
                                            #####                                    
                                            ######                                   
                                           ########,                                 
                                     ,,################,,,,,                         
                               ,,#################################,,                 
                          ,,##########################################,,             
                       ,#########################################, ''#####,          
                    ,#############################################,,   '####,        
                  ,##################################################,,,,####,       
                ,###########''''           ''''###############################       
              ,#####''   ,,,,##########,,,,          '''####'''          '####       
            ,##' ,,,,###########################,,,                        '##       
           ' ,,###''''                  '''############,,,                           
         ,,##''                                '''############,,,,        ,,,,,,###''
      ,#''                                            '''#######################'''  
     '                                                          ''''####''''         
             ,#######,   #######,   ,#######,      ##                                
            ,#'     '#,  ##    ##  ,#'     '#,    #''#        ######   ,####,        
            ##       ##  ##   ,#'  ##            #'  '#       #        #'  '#        
            ##       ##  #######   ##           ,######,      #####,   #    #        
            '#,     ,#'  ##    ##  '#,     ,#' ,#      #,         ##   #,  ,#        
             '#######'   ##     ##  '#######'  #'      '#     #####' # '####'        



                  #######################################################
                  #                        -***-                        #
                  #          Department of theory and spectroscopy      #
                  #    Directorship and core code : Frank Neese         #
                  #        Max Planck Institute fuer Kohlenforschung    #
                  #                Kaiser Wilhelm Platz 1               #
                  #                 D-45470 Muelheim/Ruhr               #
                  #                      Germany                        #
                  #                                                     #
                  #                  All rights reserved                #
                  #                        -***-                        #
                  #######################################################


                         Program Version 5.0.3 -  RELEASE  -


 With contributions from (in alphabetic order):
   Daniel Aravena         : Magnetic Suceptibility
   Michael Atanasov       : Ab Initio Ligand Field Theory (pilot matlab implementation)
   Alexander A. Auer      : GIAO ZORA, VPT2 properties, NMR spectrum
   Ute Becker             : Parallelization
   Giovanni Bistoni       : ED, misc. LED, open-shell LED, HFLD
   Martin Brehm           : Molecular dynamics
   Dmytro Bykov           : SCF Hessian
   Vijay G. Chilkuri      : MRCI spin determinant printing, contributions to CSF-ICE
   Dipayan Datta          : RHF DLPNO-CCSD density
   Achintya Kumar Dutta   : EOM-CC, STEOM-CC
   Dmitry Ganyushin       : Spin-Orbit,Spin-Spin,Magnetic field MRCI
   Miquel Garcia          : C-PCM and meta-GGA Hessian, CC/C-PCM, Gaussian charge scheme
   Yang Guo               : DLPNO-NEVPT2, F12-NEVPT2, CIM, IAO-localization
   Andreas Hansen         : Spin unrestricted coupled pair/coupled cluster methods
   Benjamin Helmich-Paris : MC-RPA, TRAH-SCF, COSX integrals
   Lee Huntington         : MR-EOM, pCC
   Robert Izsak           : Overlap fitted RIJCOSX, COSX-SCS-MP3, EOM
   Marcus Kettner         : VPT2
   Christian Kollmar      : KDIIS, OOCD, Brueckner-CCSD(T), CCSD density, CASPT2, CASPT2-K
   Simone Kossmann        : Meta GGA functionals, TD-DFT gradient, OOMP2, MP2 Hessian
   Martin Krupicka        : Initial AUTO-CI
   Lucas Lang             : DCDCAS
   Marvin Lechner         : AUTO-CI (C++ implementation), FIC-MRCC
   Dagmar Lenk            : GEPOL surface, SMD
   Dimitrios Liakos       : Extrapolation schemes; Compound Job, initial MDCI parallelization
   Dimitrios Manganas     : Further ROCIS development; embedding schemes
   Dimitrios Pantazis     : SARC Basis sets
   Anastasios Papadopoulos: AUTO-CI, single reference methods and gradients
   Taras Petrenko         : DFT Hessian,TD-DFT gradient, ASA, ECA, R-Raman, ABS, FL, XAS/XES, NRVS
   Peter Pinski           : DLPNO-MP2, DLPNO-MP2 Gradient
   Christoph Reimann      : Effective Core Potentials
   Marius Retegan         : Local ZFS, SOC
   Christoph Riplinger    : Optimizer, TS searches, QM/MM, DLPNO-CCSD(T), (RO)-DLPNO pert. Triples
   Tobias Risthaus        : Range-separated hybrids, TD-DFT gradient, RPA, STAB
   Michael Roemelt        : Original ROCIS implementation
   Masaaki Saitow         : Open-shell DLPNO-CCSD energy and density
   Barbara Sandhoefer     : DKH picture change effects
   Avijit Sen             : IP-ROCIS
   Kantharuban Sivalingam : CASSCF convergence, NEVPT2, FIC-MRCI
   Bernardo de Souza      : ESD, SOC TD-DFT
   Georgi Stoychev        : AutoAux, RI-MP2 NMR, DLPNO-MP2 response
   Willem Van den Heuvel  : Paramagnetic NMR
   Boris Wezisla          : Elementary symmetry handling
   Frank Wennmohs         : Technical directorship


 We gratefully acknowledge several colleagues who have allowed us to
 interface, adapt or use parts of their codes:
   Stefan Grimme, W. Hujo, H. Kruse, P. Pracht,  : VdW corrections, initial TS optimization,
                  C. Bannwarth, S. Ehlert          DFT functionals, gCP, sTDA/sTD-DF
   Ed Valeev, F. Pavosevic, A. Kumar             : LibInt (2-el integral package), F12 methods
   Garnet Chan, S. Sharma, J. Yang, R. Olivares  : DMRG
   Ulf Ekstrom                                   : XCFun DFT Library
   Mihaly Kallay                                 : mrcc  (arbitrary order and MRCC methods)
   Jiri Pittner, Ondrej Demel                    : Mk-CCSD
   Frank Weinhold                                : gennbo (NPA and NBO analysis)
   Christopher J. Cramer and Donald G. Truhlar   : smd solvation model
   Lars Goerigk                                  : TD-DFT with DH, B97 family of functionals
   V. Asgeirsson, H. Jonsson                     : NEB implementation
   FAccTs GmbH                                   : IRC, NEB, NEB-TS, DLPNO-Multilevel, CI-OPT
                                                   MM, QMMM, 2- and 3-layer-ONIOM, Crystal-QMMM,
                                                   LR-CPCM, SF, NACMEs, symmetry and pop. for TD-DFT,
                                                   nearIR, NL-DFT gradient (VV10), updates on ESD,
                                                   ML-optimized integration grids
   S Lehtola, MJT Oliveira, MAL Marques          : LibXC Library
   Liviu Ungur et al                             : ANISO software


 Your calculation uses the libint2 library for the computation of 2-el integrals
 For citations please refer to: http://libint.valeyev.net

 Your ORCA version has been built with support for libXC version: 5.1.0
 For citations please refer to: https://tddft.org/programs/libxc/

 This ORCA versions uses:
   CBLAS   interface :  Fast vector & matrix operations
   LAPACKE interface :  Fast linear algebra routines
   SCALAPACK package :  Parallel linear algebra routines
   Shared memory     :  Shared parallel matrices
   BLAS/LAPACK       :  OpenBLAS 0.3.15  USE64BITINT DYNAMIC_ARCH NO_AFFINITY Haswell SINGLE_THREADED
        Core in use  :  Haswell
   Copyright (c) 2011-2014, The OpenBLAS Project




***************************************
The coordinates will be read from file: arg0.xyz
***************************************


Your calculation utilizes the geometrical counterpoise correction gCP
Please cite in your paper:
H.Kruse, S. Grimme J.Chem.Phys., 136, (2012), 154101 
   

Your calculation utilizes the atom-pairwise dispersion correction
with the Becke-Johnson damping scheme (D3BJ)
Cite in your paper:
S.Grimme, S.Ehrlich, L.Goerigk, J Comput Chem, (2011), 32, 1456–1465 
S.Grimme, J.Antony, S.Ehrlich and H.Krieg, J.Chem.Phys., 132, (2010), 154104 
   

Your calculation employs the composite approach PBEh-3c.
Please cite in your paper:
S. Grimme, J. G. Brandenburg, C. Bannwarth, A. Hansen J.Chem.Phys., 143, (2015), 054107 
   

================================================================================

----- Orbital basis set information -----
Your calculation utilizes the basis: def2-mSVP

----- AuxJ basis set information -----
Your calculation utilizes the auxiliary basis: def2/J
   F. Weigend, Phys. Chem. Chem. Phys. 8, 1057 (2006).

================================================================================
                                        WARNINGS
                       Please study these warnings very carefully!
================================================================================


INFO   : the flag for use of the SHARK integral package has been found!

================================================================================
                                       INPUT FILE
================================================================================
NAME = pbeh-3c.inp
|  1> ! PBEh-3c def2/J TightSCF DefGrid3
|  2> 
|  3> %maxcore 60000
|  4> 
|  5> %pal
|  6> nprocs 4
|  7> end
|  8> 
|  9> *xyzfile 1 1 arg0.xyz
| 10> 
| 11>                          ****END OF INPUT****
================================================================================

                       ****************************
                       * Single Point Calculation *
                       ****************************

---------------------------------
CARTESIAN COORDINATES (ANGSTROEM)
---------------------------------
  N      2.832559    0.094282    1.612711
  C      1.737118   -0.034239    0.695252
  C      1.842892   -1.149170   -0.339086
  O      3.074743   -1.483617   -0.640744
  H      3.704978    0.319010    1.154617
  O      0.877992   -1.672516   -0.860147
  H      2.975381   -0.731819    2.175806
  H      0.841734   -0.260473    1.285512
  C      1.529810    1.320702   -0.007822
  H      2.453493    1.578221   -0.536381
  H      1.432704    2.054754    0.795976
  C      0.371070    1.483729   -0.990912
  H      0.503474    0.871792   -1.888027
  H      0.408308    2.515532   -1.347496
  C     -1.032353    1.266604   -0.432585
  H     -1.118606    1.753122    0.546228
  H     -1.750193    1.742405   -1.108793
  N     -2.646218   -1.972371    0.143955
  H     -3.519998   -2.396202    0.401968
  H     -1.913097   -2.591130   -0.161773
  H     -0.589987   -0.809500   -0.581264
  N     -1.340490   -0.151668   -0.322975
  C     -2.488259   -0.648350    0.085515
  N     -3.493675    0.146095    0.449837
  H     -4.373423   -0.222101    0.768123
  H     -3.408732    1.147430    0.424422
  H      3.088775   -2.170523   -1.321919

----------------------------
CARTESIAN COORDINATES (A.U.)
----------------------------
  NO LB      ZA    FRAG     MASS         X           Y           Z
   0 N     7.0000    0    14.007    5.352761    0.178168    3.047582
   1 C     6.0000    0    12.011    3.282678   -0.064703    1.313836
   2 C     6.0000    0    12.011    3.482561   -2.171618   -0.640780
   3 O     8.0000    0    15.999    5.810421   -2.803629   -1.210830
   4 H     1.0000    0     1.008    7.001395    0.602841    2.181910
   5 O     8.0000    0    15.999    1.659164   -3.160598   -1.625442
   6 H     1.0000    0     1.008    5.622654   -1.382938    4.111677
   7 H     1.0000    0     1.008    1.590647   -0.492223    2.429266
   8 C     6.0000    0    12.011    2.890921    2.495766   -0.014782
   9 H     1.0000    0     1.008    4.636430    2.982405   -1.013613
  10 H     1.0000    0     1.008    2.707418    3.882923    1.504177
  11 C     6.0000    0    12.011    0.701221    2.803841   -1.872553
  12 H     1.0000    0     1.008    0.951428    1.647449   -3.567853
  13 H     1.0000    0     1.008    0.771591    4.753667   -2.546399
  14 C     6.0000    0    12.011   -1.950864    2.393535   -0.817467
  15 H     1.0000    0     1.008   -2.113859    3.312920    1.032221
  16 H     1.0000    0     1.008   -3.307385    3.292669   -2.095315
  17 N     7.0000    0    14.007   -5.000627   -3.727240    0.272036
  18 H     1.0000    0     1.008   -6.651833   -4.528165    0.759610
  19 H     1.0000    0     1.008   -3.615229   -4.896526   -0.305706
  20 H     1.0000    0     1.008   -1.114915   -1.529733   -1.098430
  21 N     7.0000    0    14.007   -2.533159   -0.286612   -0.610334
  22 C     6.0000    0    12.011   -4.702128   -1.225203    0.161599
  23 N     7.0000    0    14.007   -6.602090    0.276079    0.850069
  24 H     1.0000    0     1.008   -8.264572   -0.419710    1.451543
  25 H     1.0000    0     1.008   -6.441570    2.168328    0.802042
  26 H     1.0000    0     1.008    5.836940   -4.101693   -2.498066

--------------------------------
INTERNAL COORDINATES (ANGSTROEM)
--------------------------------
 N      0   0   0     0.000000000000     0.00000000     0.00000000
 C      1   0   0     1.434656483849     0.00000000     0.00000000
 C      2   1   0     1.524505150364   116.51432461     0.00000000
 O      3   2   1     1.311605179858   114.05985708   333.18334626
 H      1   2   3     1.010676957545   112.90274830    62.66293980
 O      3   2   1     1.215083032894   123.42504467   154.35364866
 H      1   2   3     1.009909816492   113.03337816   299.41326113
 H      2   1   3     1.096039078791   107.32952296   118.23260983
 C      2   1   3     1.540505757446   108.41044066   235.25164651
 H      9   2   1     1.094934254845   108.27937519    59.62579501
 H      9   2   1     1.092864872480   105.48887405   306.74457075
 C      9   2   1     1.528306356907   119.30303088   183.16567368
 H     12   9   2     1.093988727510   112.09012895   293.18080817
 H     12   9   2     1.092317324626   106.55305964   179.00906221
 C     12   9   2     1.525932437317   116.53690061    60.25817364
 H     15  12   9     1.096454947277   109.62410771    42.89901443
 H     15  12   9     1.094960442343   108.37042155   160.39909012
 N     15  12   9     3.664412160554   126.04318219   279.90680288
 H     18  15  12     1.004836340707   142.76825474   187.30229984
 H     18  15  12     1.006875963420   100.06354928     0.10599996
 H      6   3   2     1.725553648402   113.00712420    12.59014681
 N     21   6   3     1.030878452697   168.23623588     5.47897432
 C     22  21   6     1.315647552270   118.16509914   218.09846867
 N     23  22  21     1.332191795428   121.21065522   179.16877126
 H     24  23  22     1.005400380302   121.90897702   180.32354392
 H     24  23  22     1.005252648406   121.55608303     0.00000000
 H      4   3   2     0.967489966163   110.89097442   182.02375389

---------------------------
INTERNAL COORDINATES (A.U.)
---------------------------
 N      0   0   0     0.000000000000     0.00000000     0.00000000
 C      1   0   0     2.711107850728     0.00000000     0.00000000
 C      2   1   0     2.880897223940   116.51432461     0.00000000
 O      3   2   1     2.478574585765   114.05985708   333.18334626
 H      1   2   3     1.909902659624   112.90274830    62.66293980
 O      3   2   1     2.296174162143   123.42504467   154.35364866
 H      1   2   3     1.908452973129   113.03337816   299.41326113
 H      2   1   3     2.071213690991   107.32952296   118.23260983
 C      2   1   3     2.911133989302   108.41044066   235.25164651
 H      9   2   1     2.069125876306   108.27937519    59.62579501
 H      9   2   1     2.065215310370   105.48887405   306.74457075
 C      9   2   1     2.888080463285   119.30303088   183.16567368
 H     12   9   2     2.067339088591   112.09012895   293.18080817
 H     12   9   2     2.064180594881   106.55305964   179.00906221
 C     12   9   2     2.883594405395   116.53690061    60.25817364
 H     15  12   9     2.071999568536   109.62410771    42.89901443
 H     15  12   9     2.069175363505   108.37042155   160.39909012
 N     15  12   9     6.924735425258   126.04318219   279.90680288
 H     18  15  12     1.898865493347   142.76825474   187.30229984
 H     18  15  12     1.902719821692   100.06354928     0.10599996
 H      6   3   2     3.260823824868   113.00712420    12.59014681
 N     21   6   3     1.948077952957   168.23623588     5.47897432
 C     22  21   6     2.486213562554   118.16509914   218.09846867
 N     23  22  21     2.517477651216   121.21065522   179.16877126
 H     24  23  22     1.899931373712   121.90897702   180.32354392
 H     24  23  22     1.899652200885   121.55608303     0.00000000
 H      4   3   2     1.828291073365   110.89097442   182.02375389

---------------------
BASIS SET INFORMATION
---------------------
There are 4 groups of distinct atoms

 Group   1 Type N   : 8s4p1d contracted to 4s2p1d pattern {5111/31/1}
 Group   2 Type C   : 8s4p1d contracted to 4s2p1d pattern {5111/31/1}
 Group   3 Type O   : 8s4p1d contracted to 4s2p1d pattern {5111/31/1}
 Group   4 Type H   : 4s contracted to 2s pattern {31}

Atom   0N    basis set group =>   1
Atom   1C    basis set group =>   2
Atom   2C    basis set group =>   2
Atom   3O    basis set group =>   3
Atom   4H    basis set group =>   4
Atom   5O    basis set group =>   3
Atom   6H    basis set group =>   4
Atom   7H    basis set group =>   4
Atom   8C    basis set group =>   2
Atom   9H    basis set group =>   4
Atom  10H    basis set group =>   4
Atom  11C    basis set group =>   2
Atom  12H    basis set group =>   4
Atom  13H    basis set group =>   4
Atom  14C    basis set group =>   2
Atom  15H    basis set group =>   4
Atom  16H    basis set group =>   4
Atom  17N    basis set group =>   1
Atom  18H    basis set group =>   4
Atom  19H    basis set group =>   4
Atom  20H    basis set group =>   4
Atom  21N    basis set group =>   1
Atom  22C    basis set group =>   2
Atom  23N    basis set group =>   1
Atom  24H    basis set group =>   4
Atom  25H    basis set group =>   4
Atom  26H    basis set group =>   4
---------------------------------
AUXILIARY/J BASIS SET INFORMATION
---------------------------------
There are 4 groups of distinct atoms

 Group   1 Type N   : 12s5p4d2f1g contracted to 6s4p3d1f1g pattern {711111/2111/211/2/1}
 Group   2 Type C   : 12s5p4d2f1g contracted to 6s4p3d1f1g pattern {711111/2111/211/2/1}
 Group   3 Type O   : 12s5p4d2f1g contracted to 6s4p3d1f1g pattern {711111/2111/211/2/1}
 Group   4 Type H   : 5s2p1d contracted to 3s1p1d pattern {311/2/1}

Atom   0N    basis set group =>   1
Atom   1C    basis set group =>   2
Atom   2C    basis set group =>   2
Atom   3O    basis set group =>   3
Atom   4H    basis set group =>   4
Atom   5O    basis set group =>   3
Atom   6H    basis set group =>   4
Atom   7H    basis set group =>   4
Atom   8C    basis set group =>   2
Atom   9H    basis set group =>   4
Atom  10H    basis set group =>   4
Atom  11C    basis set group =>   2
Atom  12H    basis set group =>   4
Atom  13H    basis set group =>   4
Atom  14C    basis set group =>   2
Atom  15H    basis set group =>   4
Atom  16H    basis set group =>   4
Atom  17N    basis set group =>   1
Atom  18H    basis set group =>   4
Atom  19H    basis set group =>   4
Atom  20H    basis set group =>   4
Atom  21N    basis set group =>   1
Atom  22C    basis set group =>   2
Atom  23N    basis set group =>   1
Atom  24H    basis set group =>   4
Atom  25H    basis set group =>   4
Atom  26H    basis set group =>   4


           ************************************************************
           *        Program running with 4 parallel MPI-processes     *
           *              working on a common directory               *
           ************************************************************
------------------------------------------------------------------------------
                           ORCA GTO INTEGRAL CALCULATION
                           -- RI-GTO INTEGRALS CHOSEN --
------------------------------------------------------------------------------
------------------------------------------------------------------------------
                   ___                                                        
                  /   \      - P O W E R E D   B Y -                         
                 /     \                                                     
                 |  |  |   _    _      __       _____    __    __             
                 |  |  |  | |  | |    /  \     |  _  \  |  |  /  |          
                  \  \/   | |  | |   /    \    | | | |  |  | /  /          
                 / \  \   | |__| |  /  /\  \   | |_| |  |  |/  /          
                |  |  |   |  __  | /  /__\  \  |    /   |      \           
                |  |  |   | |  | | |   __   |  |    \   |  |\   \          
                \     /   | |  | | |  |  |  |  | |\  \  |  | \   \       
                 \___/    |_|  |_| |__|  |__|  |_| \__\ |__|  \__/        
                                                                              
                      - O R C A' S   B I G   F R I E N D -                    
                                      &                                       
                       - I N T E G R A L  F E E D E R -                       
                                                                              
 v1 FN, 2020, v2 2021                                                         
------------------------------------------------------------------------------


Reading SHARK input file pbeh-3c.SHARKINP.tmp ... ok
----------------------
SHARK INTEGRAL PACKAGE
----------------------

Number of atoms                             ...     27
Number of basis functions                   ...    210
Number of shells                            ...    114
Maximum angular momentum                    ...      2
Integral batch strategy                     ... SHARK/LIBINT Hybrid
RI-J (if used) integral strategy            ... SPLIT-RIJ (Revised 2003 algorithm where possible)
Printlevel                                  ...      1
Contraction scheme used                     ... SEGMENTED contraction
Coulomb Range Separation                    ... NOT USED
Exchange Range Separation                   ... NOT USED
Finite Nucleus Model                        ... NOT USED
Auxiliary Coulomb fitting basis             ... AVAILABLE
   # of basis functions in Aux-J            ...    753
   # of shells in Aux-J                     ...    255
   Maximum angular momentum in Aux-J        ...      4
Auxiliary J/K fitting basis                 ... NOT available
Auxiliary Correlation fitting basis         ... NOT available
Auxiliary 'external' fitting basis          ... NOT available
Integral threshold                          ...     2.500000e-11
Primitive cut-off                           ...     2.500000e-12
Primitive pair pre-selection threshold      ...     2.500000e-12

Calculating pre-screening integrals         ... done (  0.1 sec) Dimension = 114
Organizing shell pair data                  ... done (  0.2 sec)
Shell pair information
Total number of shell pairs                 ...      6555
Shell pairs after pre-screening             ...      5346
Total number of primitive shell pairs       ...     23637
Primitive shell pairs kept                  ...     12872
          la=0 lb=0:   2355 shell pairs
          la=1 lb=0:   1650 shell pairs
          la=1 lb=1:    284 shell pairs
          la=2 lb=0:    730 shell pairs
          la=2 lb=1:    262 shell pairs
          la=2 lb=2:     65 shell pairs

Calculating one electron integrals          ... done (  0.0 sec)
Calculating RI/J V-Matrix + Cholesky decomp.... done (  0.8 sec)
Calculating Nuclear repulsion               ... done (  0.0 sec) ENN=    778.319528222930 Eh

SHARK setup successfully completed in   2.2 seconds

Maximum memory used throughout the entire GTOINT-calculation: 13.8 MB


           ************************************************************
           *        Program running with 4 parallel MPI-processes     *
           *              working on a common directory               *
           ************************************************************
-------------------------------------------------------------------------------
                                 ORCA SCF
-------------------------------------------------------------------------------

------------
SCF SETTINGS
------------
Hamiltonian:
 Density Functional     Method          .... DFT(GTOs)
 Exchange Functional    Exchange        .... PBE
   PBE kappa parameter   XKappa         ....  1.024500
   PBE mue parameter    XMuePBE         ....  0.123457
 Correlation Functional Correlation     .... PBE
   PBE beta parameter  CBetaPBE         ....  0.030000
 LDA part of GGA corr.  LDAOpt          .... PW91-LDA
 Gradients option       PostSCFGGA      .... off
 Hybrid DFT is turned on
   Fraction HF Exchange ScalHFX         ....  0.420000
   Scaling of DF-GGA-X  ScalDFX         ....  0.580000
   Scaling of DF-GGA-C  ScalDFC         ....  1.000000
   Scaling of DF-LDA-C  ScalLDAC        ....  1.000000
   Perturbative correction              ....  0.000000
   Density functional embedding theory  .... OFF
 RI-approximation to the Coulomb term is turned on
   Number of AuxJ basis functions       .... 753
   RIJ-ON(X) (HFX calculated with O(N)) .... on
   Number of AuxJ basis functions       .... 753
   RIJ-COSX (HFX calculated with COS-X)).... on


General Settings:
 Integral files         IntName         .... pbeh-3c
 Hartree-Fock type      HFTyp           .... RHF
 Total Charge           Charge          ....    1
 Multiplicity           Mult            ....    1
 Number of Electrons    NEL             ....   94
 Basis Dimension        Dim             ....  210
 Nuclear Repulsion      ENuc            ....    778.3195282229 Eh

Convergence Acceleration:
 DIIS                   CNVDIIS         .... on
   Start iteration      DIISMaxIt       ....    12
   Startup error        DIISStart       ....  0.200000
   # of expansion vecs  DIISMaxEq       ....     5
   Bias factor          DIISBfac        ....   1.050
   Max. coefficient     DIISMaxC        ....  10.000
 Trust-Rad. Augm. Hess. CNVTRAH         .... auto
   Auto Start mean grad. ratio tolernc. ....  1.125000
   Auto Start start iteration           ....    20
   Auto Start num. interpolation iter.  ....    10
   Max. Number of Micro iterations      ....    16
   Max. Number of Macro iterations      .... Maxiter - #DIIS iter
   Number of Davidson start vectors     ....     2
   Converg. threshold I  (grad. norm)   ....   1.000e-05
   Converg. threshold II (energy diff.) ....   1.000e-08
   Grad. Scal. Fac. for Micro threshold ....   0.100
   Minimum threshold for Micro iter.    ....   0.010
   NR start threshold (gradient norm)   ....   0.001
   Initial trust radius                 ....   0.400
   Minimum AH scaling param. (alpha)    ....   1.000
   Maximum AH scaling param. (alpha)    .... 1000.000
   Orbital update algorithm             .... Taylor
   White noise on init. David. guess    .... on
   Maximum white noise                  ....   0.010
   Quad. conv. algorithm                .... NR
   COSX micro iterations for RIJONX calc.... off
 SOSCF                  CNVSOSCF        .... on
   Start iteration      SOSCFMaxIt      ....   150
   Startup grad/error   SOSCFStart      ....  0.003300
 Level Shifting         CNVShift        .... on
   Level shift para.    LevelShift      ....    0.2500
   Turn off err/grad.   ShiftErr        ....    0.0010
 Zerner damping         CNVZerner       .... off
 Static damping         CNVDamp         .... on
   Fraction old density DampFac         ....    0.7000
   Max. Damping (<1)    DampMax         ....    0.9800
   Min. Damping (>=0)   DampMin         ....    0.0000
   Turn off err/grad.   DampErr         ....    0.1000
 Fernandez-Rico         CNVRico         .... off

SCF Procedure:
 Maximum # iterations   MaxIter         ....   125
 SCF integral mode      SCFMode         .... Direct
   Integral package                     .... SHARK and LIBINT hybrid scheme
 Reset frequency        DirectResetFreq ....    20
 Integral Threshold     Thresh          ....  2.500e-11 Eh
 Primitive CutOff       TCut            ....  2.500e-12 Eh

Convergence Tolerance:
 Convergence Check Mode ConvCheckMode   .... Total+1el-Energy
 Convergence forced     ConvForced      .... 0
 Energy Change          TolE            ....  1.000e-08 Eh
 1-El. energy change                    ....  1.000e-05 Eh
 Orbital Gradient       TolG            ....  1.000e-05
 Orbital Rotation angle TolX            ....  1.000e-05
 DIIS Error             TolErr          ....  5.000e-07


Diagonalization of the overlap matrix:
Smallest eigenvalue                        ... 4.299e-03
Time for diagonalization                   ...    0.007 sec
Threshold for overlap eigenvalues          ... 1.000e-08
Number of eigenvalues below threshold      ... 0
Time for construction of square roots      ...    0.133 sec
Total time needed                          ...    0.141 sec

--------------------------------
INITIAL GUESS: MINIMAL BASIS EHT
--------------------------------
The minimal basis has 75 functions
EHT matrix was diagonalized
Basis set overlap was calculated now projecting the orbitals
Using GuessMode=FMatrix for the initial guess
C*T matrix was formed
Effective Fockian was calculated
Effective Fockian was diagonalized
Initial density was built
                      ------------------
                      INITIAL GUESS DONE
                      ------------------
-------------------
DFT GRID GENERATION
-------------------

General Integration Accuracy     IntAcc      ... 4.959
Radial Grid Type                 RadialGrid  ... OptM3 with GC (2021)
Angular Grid (max. ang.)         AngularGrid ... 6 (Lebedev-590)
Angular grid pruning method      GridPruning ... 4 (adaptive)
Weight generation scheme         WeightScheme... Becke
Basis function cutoff            BFCut       ... 1.0000e-11
Integration weight cutoff        WCut        ... 1.0000e-14
Angular grids for H and He will be reduced by one unit
Partially contracted basis set               ... off
Rotationally invariant grid construction     ... off

Total number of grid points                  ...   299604
Total number of batches                      ...     4697
Average number of points per batch           ...       63
Average number of grid points per atom       ...    11096
Time for grid setup =    6.071 sec

--------------------
COSX GRID GENERATION
--------------------

GRIDX 1
-------
General Integration Accuracy     IntAcc      ... 4.020
Radial Grid Type                 RadialGrid  ... OptM3 with GC (2021)
Angular Grid (max. ang.)         AngularGrid ... 2 (Lebedev-110)
Angular grid pruning method      GridPruning ... 4 (adaptive)
Weight generation scheme         WeightScheme... Becke
Basis function cutoff            BFCut       ... 1.0000e-11
Integration weight cutoff        WCut        ... 1.0000e-14
Angular grids for H and He will be reduced by one unit
Partially contracted basis set               ... on
Rotationally invariant grid construction     ... off

Total number of grid points                  ...    32490
Total number of batches                      ...      523
Average number of points per batch           ...       62
Average number of grid points per atom       ...     1203
UseSFitting                                  ... on

GRIDX 2
-------
General Integration Accuracy     IntAcc      ... 4.338
Radial Grid Type                 RadialGrid  ... OptM3 with GC (2021)
Angular Grid (max. ang.)         AngularGrid ... 3 (Lebedev-194)
Angular grid pruning method      GridPruning ... 4 (adaptive)
Weight generation scheme         WeightScheme... Becke
Basis function cutoff            BFCut       ... 1.0000e-11
Integration weight cutoff        WCut        ... 1.0000e-14
Angular grids for H and He will be reduced by one unit
Partially contracted basis set               ... on
Rotationally invariant grid construction     ... off

Total number of grid points                  ...    70964
Total number of batches                      ...     1124
Average number of points per batch           ...       63
Average number of grid points per atom       ...     2628
UseSFitting                                  ... on

GRIDX 3
-------
General Integration Accuracy     IntAcc      ... 4.871
Radial Grid Type                 RadialGrid  ... OptM3 with GC (2021)
Angular Grid (max. ang.)         AngularGrid ... 4 (Lebedev-302)
Angular grid pruning method      GridPruning ... 4 (adaptive)
Weight generation scheme         WeightScheme... Becke
Basis function cutoff            BFCut       ... 1.0000e-11
Integration weight cutoff        WCut        ... 1.0000e-14
Angular grids for H and He will be reduced by one unit
Partially contracted basis set               ... on
Rotationally invariant grid construction     ... off

Total number of grid points                  ...   136685
Total number of batches                      ...     2148
Average number of points per batch           ...       63
Average number of grid points per atom       ...     5062
UseSFitting                                  ... on

Time for X-Grid setup             =    5.103 sec

--------------
SCF ITERATIONS
--------------
ITER       Energy         Delta-E        Max-DP      RMS-DP      [F,P]     Damp
               ***  Starting incremental Fock matrix formation  ***
  0   -604.0453652578   0.000000000000 0.17722184  0.00413045  0.5093454 0.7000
  1   -604.6295370871  -0.584171829287 0.09413567  0.00258678  0.3183881 0.7000
  2   -604.9494583584  -0.319921271351 0.04564031  0.00158453  0.2243210 0.7000
                               ***Turning on DIIS***
  3   -605.1693281776  -0.219869819135 0.03034887  0.00107368  0.1575184 0.7000
  4   -605.3265984154  -0.157270237817 0.02182132  0.00080171  0.1103462 0.7000
  5   -605.4381352860  -0.111536870601 0.05704678  0.00199981  0.0769857 0.0000
  6   -605.7039564812  -0.265821195213 0.00488569  0.00012466  0.0034295 0.0000
                      *** Initiating the SOSCF procedure ***
                           *** Shutting down DIIS ***
                      *** Re-Reading the Fockian *** 
                      *** Removing any level shift *** 
ITER      Energy       Delta-E        Grad      Rot      Max-DP    RMS-DP
  7   -605.70412540  -0.0001689150  0.000520  0.000520  0.002356  0.000052
               *** Restarting incremental Fock matrix formation ***
  8   -605.70416443  -0.0000390375  0.000401  0.001072  0.002191  0.000041
  9   -605.70417181  -0.0000073806  0.000255  0.000710  0.001508  0.000029
 10   -605.70417309  -0.0000012793  0.000169  0.000280  0.000701  0.000013
 11   -605.70417405  -0.0000009546  0.000034  0.000065  0.000095  0.000002
 12   -605.70417405  -0.0000000055  0.000034  0.000036  0.000062  0.000001
                  ***Gradient check signals convergence***
              ***Rediagonalizing the Fockian in SOSCF/NRSCF***

               *****************************************************
               *                     SUCCESS                       *
               *           SCF CONVERGED AFTER  13 CYCLES          *
               *****************************************************

Old exchange energy                            =    -33.277538895 Eh
New exchange energy                            =    -33.277545940 Eh
Exchange energy change after final integration =     -0.000007045 Eh
Total energy after final integration           =   -605.704181131 Eh
Final COS-X integration done in                =    12.668 sec

----------------
TOTAL SCF ENERGY
----------------

Total Energy       :         -605.70418113 Eh          -16482.04870 eV

Components:
Nuclear Repulsion  :          778.31952822 Eh           21179.15109 eV
Electronic Energy  :        -1384.02370935 Eh          -37661.19979 eV
One Electron Energy:        -2355.31516072 Eh          -64091.38387 eV
Two Electron Energy:          971.29145136 Eh           26430.18408 eV
Max COSX asymmetry :            0.00000222 Eh               0.00006 eV

Virial components:
Potential Energy   :        -1207.02757864 Eh          -32844.89022 eV
Kinetic Energy     :          601.32339751 Eh           16362.84152 eV
Virial Ratio       :            2.00728524


DFT components:
N(Alpha)           :       47.000014960440 electrons
N(Beta)            :       47.000014960440 electrons
N(Total)           :       94.000029920881 electrons
E(X)               :      -44.252133851032 Eh       
E(C)               :       -4.159733679389 Eh       
E(XC)              :      -48.411867530420 Eh       
DFET-embed. en.    :        0.000000000000 Eh       

---------------
SCF CONVERGENCE
---------------

  Last Energy change         ...   -3.2261e-08  Tolerance :   1.0000e-08
  Last MAX-Density change    ...    1.9984e-15  Tolerance :   1.0000e-07
  Last RMS-Density change    ...    4.3247e-17  Tolerance :   5.0000e-09
  Last Orbital Gradient      ...    2.2832e-06  Tolerance :   1.0000e-05
  Last Orbital Rotation      ...    3.4187e-06  Tolerance :   1.0000e-05

             **** THE GBW FILE WAS UPDATED (pbeh-3c.gbw) ****
             **** DENSITY pbeh-3c.scfp WAS UPDATED ****
             **** ENERGY FILE WAS UPDATED (pbeh-3c.en.tmp) ****
             **** THE GBW FILE WAS UPDATED (pbeh-3c.gbw) ****
             **** DENSITY pbeh-3c.scfp WAS UPDATED ****
----------------
ORBITAL ENERGIES
----------------

  NO   OCC          E(Eh)            E(eV) 
   0   2.0000     -19.678149      -535.4696 
   1   2.0000     -19.628937      -534.1305 
   2   2.0000     -14.835816      -403.7031 
   3   2.0000     -14.830099      -403.5475 
   4   2.0000     -14.821279      -403.3075 
   5   2.0000     -14.726457      -400.7273 
   6   2.0000     -10.755085      -292.6607 
   7   2.0000     -10.715345      -291.5794 
   8   2.0000     -10.627242      -289.1819 
   9   2.0000     -10.609422      -288.6970 
  10   2.0000     -10.576928      -287.8128 
  11   2.0000     -10.568419      -287.5813 
  12   2.0000      -1.367483       -37.2111 
  13   2.0000      -1.293308       -35.1927 
  14   2.0000      -1.267586       -34.4928 
  15   2.0000      -1.172719       -31.9113 
  16   2.0000      -1.164040       -31.6751 
  17   2.0000      -1.113737       -30.3063 
  18   2.0000      -1.021647       -27.8004 
  19   2.0000      -0.951995       -25.9051 
  20   2.0000      -0.902545       -24.5595 
  21   2.0000      -0.878493       -23.9050 
  22   2.0000      -0.839593       -22.8465 
  23   2.0000      -0.829315       -22.5668 
  24   2.0000      -0.798228       -21.7209 
  25   2.0000      -0.782054       -21.2808 
  26   2.0000      -0.732922       -19.9438 
  27   2.0000      -0.723531       -19.6883 
  28   2.0000      -0.705519       -19.1981 
  29   2.0000      -0.705300       -19.1922 
  30   2.0000      -0.697828       -18.9889 
  31   2.0000      -0.673721       -18.3329 
  32   2.0000      -0.664903       -18.0929 
  33   2.0000      -0.650076       -17.6895 
  34   2.0000      -0.636987       -17.3333 
  35   2.0000      -0.612716       -16.6729 
  36   2.0000      -0.608211       -16.5503 
  37   2.0000      -0.582886       -15.8611 
  38   2.0000      -0.571834       -15.5604 
  39   2.0000      -0.535698       -14.5771 
  40   2.0000      -0.528458       -14.3801 
  41   2.0000      -0.522829       -14.2269 
  42   2.0000      -0.507184       -13.8012 
  43   2.0000      -0.500765       -13.6265 
  44   2.0000      -0.489783       -13.3277 
  45   2.0000      -0.465832       -12.6759 
  46   2.0000      -0.404452       -11.0057 
  47   0.0000      -0.093456        -2.5431 
  48   0.0000      -0.089144        -2.4257 
  49   0.0000      -0.045234        -1.2309 
  50   0.0000      -0.010399        -0.2830 
  51   0.0000       0.000216         0.0059 
  52   0.0000       0.004524         0.1231 
  53   0.0000       0.014683         0.3995 
  54   0.0000       0.029993         0.8162 
  55   0.0000       0.042321         1.1516 
  56   0.0000       0.047509         1.2928 
  57   0.0000       0.055619         1.5135 
  58   0.0000       0.071131         1.9356 
  59   0.0000       0.074628         2.0307 
  60   0.0000       0.084826         2.3082 
  61   0.0000       0.099032         2.6948 
  62   0.0000       0.103161         2.8071 
  63   0.0000       0.120738         3.2854 
  64   0.0000       0.135526         3.6879 
  65   0.0000       0.137978         3.7546 
  66   0.0000       0.147957         4.0261 
  67   0.0000       0.164202         4.4682 
  68   0.0000       0.180155         4.9023 
  69   0.0000       0.186263         5.0685 
  70   0.0000       0.208304         5.6682 
  71   0.0000       0.247156         6.7254 
  72   0.0000       0.255734         6.9589 
  73   0.0000       0.278588         7.5808 
  74   0.0000       0.327711         8.9175 
  75   0.0000       0.367161         9.9910 
  76   0.0000       0.372869        10.1463 
  77   0.0000       0.390378        10.6227 
  78   0.0000       0.403580        10.9820 
  79   0.0000       0.413121        11.2416 
  80   0.0000       0.421401        11.4669 
  81   0.0000       0.427124        11.6226 
  82   0.0000       0.438013        11.9189 
  83   0.0000       0.468270        12.7423 
  84   0.0000       0.488687        13.2979 
  85   0.0000       0.504702        13.7336 
  86   0.0000       0.517583        14.0842 
  87   0.0000       0.535968        14.5844 
  88   0.0000       0.545549        14.8451 
  89   0.0000       0.562742        15.3130 
  90   0.0000       0.575369        15.6566 
  91   0.0000       0.579343        15.7647 
  92   0.0000       0.591258        16.0889 
  93   0.0000       0.622134        16.9291 
  94   0.0000       0.659685        17.9509 
  95   0.0000       0.675979        18.3943 
  96   0.0000       0.699764        19.0415 
  97   0.0000       0.714933        19.4543 
  98   0.0000       0.722158        19.6509 
  99   0.0000       0.762611        20.7517 
 100   0.0000       0.781155        21.2563 
 101   0.0000       0.788143        21.4465 
 102   0.0000       0.814086        22.1524 
 103   0.0000       0.818990        22.2858 
 104   0.0000       0.833297        22.6752 
 105   0.0000       0.848727        23.0950 
 106   0.0000       0.860262        23.4089 
 107   0.0000       0.863013        23.4838 
 108   0.0000       0.869306        23.6550 
 109   0.0000       0.881838        23.9960 
 110   0.0000       0.894499        24.3406 
 111   0.0000       0.911540        24.8043 
 112   0.0000       0.916947        24.9514 
 113   0.0000       0.924892        25.1676 
 114   0.0000       0.936764        25.4906 
 115   0.0000       0.940761        25.5994 
 116   0.0000       0.959894        26.1200 
 117   0.0000       0.978348        26.6222 
 118   0.0000       0.983883        26.7728 
 119   0.0000       1.013045        27.5663 
 120   0.0000       1.020161        27.7600 
 121   0.0000       1.063770        28.9467 
 122   0.0000       1.073884        29.2219 
 123   0.0000       1.084344        29.5065 
 124   0.0000       1.102213        29.9927 
 125   0.0000       1.132825        30.8257 
 126   0.0000       1.174136        31.9499 
 127   0.0000       1.199753        32.6469 
 128   0.0000       1.217706        33.1355 
 129   0.0000       1.250543        34.0290 
 130   0.0000       1.272844        34.6358 
 131   0.0000       1.287911        35.0458 
 132   0.0000       1.317753        35.8579 
 133   0.0000       1.330892        36.2154 
 134   0.0000       1.390989        37.8507 
 135   0.0000       1.405302        38.2402 
 136   0.0000       1.417948        38.5843 
 137   0.0000       1.448022        39.4027 
 138   0.0000       1.497151        40.7396 
 139   0.0000       1.529237        41.6126 
 140   0.0000       1.531058        41.6622 
 141   0.0000       1.535332        41.7785 
 142   0.0000       1.543573        42.0028 
 143   0.0000       1.570900        42.7464 
 144   0.0000       1.586050        43.1586 
 145   0.0000       1.591907        43.3180 
 146   0.0000       1.646868        44.8136 
 147   0.0000       1.692303        46.0499 
 148   0.0000       1.705228        46.4016 
 149   0.0000       1.722613        46.8747 
 150   0.0000       1.738364        47.3033 
 151   0.0000       1.764890        48.0251 
 152   0.0000       1.796112        48.8747 
 153   0.0000       1.816676        49.4343 
 154   0.0000       1.826163        49.6924 
 155   0.0000       1.861545        50.6552 
 156   0.0000       1.872715        50.9592 
 157   0.0000       1.889153        51.4065 
 158   0.0000       1.906431        51.8766 
 159   0.0000       1.934348        52.6363 
 160   0.0000       1.949311        53.0434 
 161   0.0000       1.966986        53.5244 
 162   0.0000       1.987448        54.0812 
 163   0.0000       2.041558        55.5536 
 164   0.0000       2.054734        55.9121 
 165   0.0000       2.083056        56.6828 
 166   0.0000       2.095812        57.0300 
 167   0.0000       2.102857        57.2216 
 168   0.0000       2.117914        57.6314 
 169   0.0000       2.152431        58.5706 
 170   0.0000       2.182201        59.3807 
 171   0.0000       2.218632        60.3720 
 172   0.0000       2.226956        60.5986 
 173   0.0000       2.244587        61.0783 
 174   0.0000       2.249798        61.2201 
 175   0.0000       2.282516        62.1104 
 176   0.0000       2.326166        63.2982 
 177   0.0000       2.352761        64.0219 
 178   0.0000       2.359896        64.2160 
 179   0.0000       2.389726        65.0278 
 180   0.0000       2.423312        65.9417 
 181   0.0000       2.443075        66.4794 
 182   0.0000       2.481560        67.5267 
 183   0.0000       2.501500        68.0693 
 184   0.0000       2.505929        68.1898 
 185   0.0000       2.524346        68.6909 
 186   0.0000       2.565123        69.8005 
 187   0.0000       2.575915        70.0942 
 188   0.0000       2.616977        71.2116 
 189   0.0000       2.636531        71.7437 
 190   0.0000       2.680060        72.9281 
 191   0.0000       2.695243        73.3413 
 192   0.0000       2.755064        74.9691 
 193   0.0000       2.855431        77.7002 
 194   0.0000       2.945721        80.1572 
 195   0.0000       3.014180        82.0200 
 196   0.0000       3.054520        83.1177 
 197   0.0000       3.091374        84.1206 
 198   0.0000      13.458422       366.2223 
 199   0.0000      13.625144       370.7590 
 200   0.0000      13.690048       372.5252 
 201   0.0000      13.854836       377.0092 
 202   0.0000      13.932470       379.1218 
 203   0.0000      14.006922       381.1477 
 204   0.0000      18.950707       515.6749 
 205   0.0000      19.078713       519.1582 
 206   0.0000      19.201936       522.5112 
 207   0.0000      19.287840       524.8488 
 208   0.0000      25.449746       692.5228 
 209   0.0000      25.655807       698.1300 

                    ********************************
                    * MULLIKEN POPULATION ANALYSIS *
                    ********************************

-----------------------
MULLIKEN ATOMIC CHARGES
-----------------------
   0 N :   -0.722208
   1 C :   -0.219230
   2 C :    0.561842
   3 O :   -0.539760
   4 H :    0.344045
   5 O :   -0.454115
   6 H :    0.344837
   7 H :    0.250020
   8 C :   -0.438606
   9 H :    0.253373
  10 H :    0.272974
  11 C :   -0.500001
  12 H :    0.253961
  13 H :    0.278652
  14 C :   -0.312837
  15 H :    0.249580
  16 H :    0.260380
  17 N :   -0.819183
  18 H :    0.403010
  19 H :    0.417194
  20 H :    0.447125
  21 N :   -0.652354
  22 C :    0.836754
  23 N :   -0.811247
  24 H :    0.406334
  25 H :    0.424040
  26 H :    0.465420
Sum of atomic charges:    1.0000000

--------------------------------
MULLIKEN REDUCED ORBITAL CHARGES
--------------------------------
  0 N s       :     3.603526  s :     3.603526
      pz      :     1.384540  p :     4.084141
      px      :     1.162222
      py      :     1.537379
      dz2     :     0.002899  d :     0.034541
      dxz     :     0.011307
      dyz     :     0.007117
      dx2y2   :     0.010405
      dxy     :     0.002812
  1 C s       :     3.263771  s :     3.263771
      pz      :     0.915076  p :     2.889641
      px      :     1.023522
      py      :     0.951043
      dz2     :     0.008437  d :     0.065817
      dxz     :     0.016670
      dyz     :     0.018456
      dx2y2   :     0.014279
      dxy     :     0.007975
  2 C s       :     2.976969  s :     2.976969
      pz      :     0.790963  p :     2.322473
      px      :     0.726515
      py      :     0.804995
      dz2     :     0.019128  d :     0.138716
      dxz     :     0.033449
      dyz     :     0.012428
      dx2y2   :     0.039372
      dxy     :     0.034339
  3 O s       :     3.787572  s :     3.787572
      pz      :     1.604334  p :     4.721235
      px      :     1.516219
      py      :     1.600682
      dz2     :     0.003193  d :     0.030953
      dxz     :     0.005134
      dyz     :     0.008300
      dx2y2   :     0.009307
      dxy     :     0.005018
  4 H s       :     0.655955  s :     0.655955
  5 O s       :     3.761612  s :     3.761612
      pz      :     1.575365  p :     4.664564
      px      :     1.509530
      py      :     1.579669
      dz2     :     0.005017  d :     0.027939
      dxz     :     0.007009
      dyz     :     0.002974
      dx2y2   :     0.005651
      dxy     :     0.007287
  6 H s       :     0.655163  s :     0.655163
  7 H s       :     0.749980  s :     0.749980
  8 C s       :     3.333304  s :     3.333304
      pz      :     1.063859  p :     3.062950
      px      :     1.037655
      py      :     0.961436
      dz2     :     0.003948  d :     0.042352
      dxz     :     0.010690
      dyz     :     0.012840
      dx2y2   :     0.010420
      dxy     :     0.004453
  9 H s       :     0.746627  s :     0.746627
 10 H s       :     0.727026  s :     0.727026
 11 C s       :     3.347187  s :     3.347187
      pz      :     1.041663  p :     3.110018
      px      :     0.863915
      py      :     1.204440
      dz2     :     0.007258  d :     0.042796
      dxz     :     0.009422
      dyz     :     0.009571
      dx2y2   :     0.013418
      dxy     :     0.003128
 12 H s       :     0.746039  s :     0.746039
 13 H s       :     0.721348  s :     0.721348
 14 C s       :     3.293741  s :     3.293741
      pz      :     1.136127  p :     2.961519
      px      :     1.067804
      py      :     0.757588
      dz2     :     0.009635  d :     0.057577
      dxz     :     0.008723
      dyz     :     0.014361
      dx2y2   :     0.014316
      dxy     :     0.010542
 15 H s       :     0.750420  s :     0.750420
 16 H s       :     0.739620  s :     0.739620
 17 N s       :     3.574119  s :     3.574119
      pz      :     1.702720  p :     4.218819
      px      :     1.361820
      py      :     1.154279
      dz2     :     0.003349  d :     0.026245
      dxz     :     0.002293
      dyz     :     0.004625
      dx2y2   :     0.006655
      dxy     :     0.009323
 18 H s       :     0.596990  s :     0.596990
 19 H s       :     0.582806  s :     0.582806
 20 H s       :     0.552875  s :     0.552875
 21 N s       :     3.559135  s :     3.559135
      pz      :     1.586135  p :     4.059100
      px      :     1.241911
      py      :     1.231054
      dz2     :     0.003959  d :     0.034119
      dxz     :     0.004571
      dyz     :     0.005565
      dx2y2   :     0.007488
      dxy     :     0.012537
 22 C s       :     2.809681  s :     2.809681
      pz      :     0.771496  p :     2.233938
      px      :     0.759076
      py      :     0.703366
      dz2     :     0.012248  d :     0.119627
      dxz     :     0.020547
      dyz     :     0.025387
      dx2y2   :     0.030910
      dxy     :     0.030536
 23 N s       :     3.567353  s :     3.567353
      pz      :     1.680241  p :     4.217750
      px      :     1.265400
      py      :     1.272109
      dz2     :     0.004036  d :     0.026145
      dxz     :     0.003885
      dyz     :     0.002154
      dx2y2   :     0.009482
      dxy     :     0.006588
 24 H s       :     0.593666  s :     0.593666
 25 H s       :     0.575960  s :     0.575960
 26 H s       :     0.534580  s :     0.534580


                     *******************************
                     * LOEWDIN POPULATION ANALYSIS *
                     *******************************

----------------------
LOEWDIN ATOMIC CHARGES
----------------------
   0 N :   -0.432527
   1 C :   -0.123505
   2 C :    0.130806
   3 O :   -0.238725
   4 H :    0.240172
   5 O :   -0.270408
   6 H :    0.238766
   7 H :    0.138398
   8 C :   -0.232245
   9 H :    0.144970
  10 H :    0.152896
  11 C :   -0.249891
  12 H :    0.141256
  13 H :    0.158284
  14 C :   -0.150772
  15 H :    0.132080
  16 H :    0.137513
  17 N :   -0.330998
  18 H :    0.280264
  19 H :    0.288035
  20 H :    0.284308
  21 N :   -0.214074
  22 C :    0.184143
  23 N :   -0.326801
  24 H :    0.282040
  25 H :    0.284936
  26 H :    0.351078

-------------------------------
LOEWDIN REDUCED ORBITAL CHARGES
-------------------------------
  0 N s       :     3.212632  s :     3.212632
      pz      :     1.413311  p :     4.155063
      px      :     1.214834
      py      :     1.526918
      dz2     :     0.006496  d :     0.064832
      dxz     :     0.021917
      dyz     :     0.011902
      dx2y2   :     0.017541
      dxy     :     0.006976
  1 C s       :     2.869540  s :     2.869540
      pz      :     1.019848  p :     3.110983
      px      :     1.036195
      py      :     1.054940
      dz2     :     0.017258  d :     0.142982
      dxz     :     0.034426
      dyz     :     0.043856
      dx2y2   :     0.031441
      dxy     :     0.016002
  2 C s       :     2.845028  s :     2.845028
      pz      :     0.874271  p :     2.711973
      px      :     0.950458
      py      :     0.887245
      dz2     :     0.043019  d :     0.312193
      dxz     :     0.072078
      dyz     :     0.028379
      dx2y2   :     0.094873
      dxy     :     0.073843
  3 O s       :     3.472019  s :     3.472019
      pz      :     1.583054  p :     4.709397
      px      :     1.550008
      py      :     1.576335
      dz2     :     0.006486  d :     0.057308
      dxz     :     0.010029
      dyz     :     0.012399
      dx2y2   :     0.017889
      dxy     :     0.010505
  4 H s       :     0.759828  s :     0.759828
  5 O s       :     3.508706  s :     3.508706
      pz      :     1.574533  p :     4.706859
      px      :     1.554248
      py      :     1.578077
      dz2     :     0.007552  d :     0.054843
      dxz     :     0.013962
      dyz     :     0.006464
      dx2y2   :     0.012038
      dxy     :     0.014826
  6 H s       :     0.761234  s :     0.761234
  7 H s       :     0.861602  s :     0.861602
  8 C s       :     2.914469  s :     2.914469
      pz      :     1.097374  p :     3.230789
      px      :     1.085166
      py      :     1.048249
      dz2     :     0.007783  d :     0.086988
      dxz     :     0.021924
      dyz     :     0.025402
      dx2y2   :     0.021832
      dxy     :     0.010047
  9 H s       :     0.855030  s :     0.855030
 10 H s       :     0.847104  s :     0.847104
 11 C s       :     2.908108  s :     2.908108
      pz      :     1.093233  p :     3.254134
      px      :     1.026811
      py      :     1.134090
      dz2     :     0.014307  d :     0.087649
      dxz     :     0.022285
      dyz     :     0.016726
      dx2y2   :     0.027563
      dxy     :     0.006768
 12 H s       :     0.858744  s :     0.858744
 13 H s       :     0.841716  s :     0.841716
 14 C s       :     2.901814  s :     2.901814
      pz      :     1.124304  p :     3.130841
      px      :     1.107057
      py      :     0.899480
      dz2     :     0.018324  d :     0.118117
      dxz     :     0.016014
      dyz     :     0.028692
      dx2y2   :     0.032058
      dxy     :     0.023028
 15 H s       :     0.867920  s :     0.867920
 16 H s       :     0.862487  s :     0.862487
 17 N s       :     3.123370  s :     3.123370
      pz      :     1.666846  p :     4.151975
      px      :     1.297572
      py      :     1.187556
      dz2     :     0.004357  d :     0.055654
      dxz     :     0.002823
      dyz     :     0.009088
      dx2y2   :     0.017550
      dxy     :     0.021835
 18 H s       :     0.719736  s :     0.719736
 19 H s       :     0.711965  s :     0.711965
 20 H s       :     0.715692  s :     0.715692
 21 N s       :     3.094046  s :     3.094046
      pz      :     1.554845  p :     4.038955
      px      :     1.252745
      py      :     1.231365
      dz2     :     0.006195  d :     0.081072
      dxz     :     0.009046
      dyz     :     0.012613
      dx2y2   :     0.022015
      dxy     :     0.031204
 22 C s       :     2.774514  s :     2.774514
      pz      :     0.828323  p :     2.778847
      px      :     0.972654
      py      :     0.977870
      dz2     :     0.026017  d :     0.262496
      dxz     :     0.043159
      dyz     :     0.051820
      dx2y2   :     0.071564
      dxy     :     0.069935
 23 N s       :     3.121039  s :     3.121039
      pz      :     1.652609  p :     4.149899
      px      :     1.265180
      py      :     1.232110
      dz2     :     0.005163  d :     0.055863
      dxz     :     0.007009
      dyz     :     0.004571
      dx2y2   :     0.022020
      dxy     :     0.017100
 24 H s       :     0.717960  s :     0.717960
 25 H s       :     0.715064  s :     0.715064
 26 H s       :     0.648922  s :     0.648922


                      *****************************
                      * MAYER POPULATION ANALYSIS *
                      *****************************

  NA   - Mulliken gross atomic population
  ZA   - Total nuclear charge
  QA   - Mulliken gross atomic charge
  VA   - Mayer's total valence
  BVA  - Mayer's bonded valence
  FA   - Mayer's free valence

  ATOM       NA         ZA         QA         VA         BVA        FA
  0 N      7.7222     7.0000    -0.7222     2.8009     2.8009    -0.0000
  1 C      6.2192     6.0000    -0.2192     3.7891     3.7891     0.0000
  2 C      5.4382     6.0000     0.5618     3.9580     3.9580     0.0000
  3 O      8.5398     8.0000    -0.5398     2.0776     2.0776     0.0000
  4 H      0.6560     1.0000     0.3440     0.8524     0.8524    -0.0000
  5 O      8.4541     8.0000    -0.4541     2.1603     2.1603    -0.0000
  6 H      0.6552     1.0000     0.3448     0.8489     0.8489    -0.0000
  7 H      0.7500     1.0000     0.2500     0.8918     0.8918     0.0000
  8 C      6.4386     6.0000    -0.4386     3.6768     3.6768     0.0000
  9 H      0.7466     1.0000     0.2534     0.8963     0.8963     0.0000
 10 H      0.7270     1.0000     0.2730     0.8908     0.8908    -0.0000
 11 C      6.5000     6.0000    -0.5000     3.7088     3.7088    -0.0000
 12 H      0.7460     1.0000     0.2540     0.8950     0.8950    -0.0000
 13 H      0.7213     1.0000     0.2787     0.8843     0.8843    -0.0000
 14 C      6.3128     6.0000    -0.3128     3.6386     3.6386     0.0000
 15 H      0.7504     1.0000     0.2496     0.8891     0.8891     0.0000
 16 H      0.7396     1.0000     0.2604     0.8871     0.8871    -0.0000
 17 N      7.8192     7.0000    -0.8192     2.9380     2.9380    -0.0000
 18 H      0.5970     1.0000     0.4030     0.8228     0.8228    -0.0000
 19 H      0.5828     1.0000     0.4172     0.8161     0.8161    -0.0000
 20 H      0.5529     1.0000     0.4471     0.8208     0.8208    -0.0000
 21 N      7.6524     7.0000    -0.6524     2.9933     2.9933     0.0000
 22 C      5.1632     6.0000     0.8368     3.7545     3.7545     0.0000
 23 N      7.8112     7.0000    -0.8112     2.9493     2.9493    -0.0000
 24 H      0.5937     1.0000     0.4063     0.8198     0.8198    -0.0000
 25 H      0.5760     1.0000     0.4240     0.8069     0.8069    -0.0000
 26 H      0.5346     1.0000     0.4654     0.7755     0.7755     0.0000

  Mayer bond orders larger than 0.100000
B(  0-N ,  1-C ) :   1.0879 B(  0-N ,  4-H ) :   0.8424 B(  0-N ,  6-H ) :   0.8476 
B(  1-C ,  2-C ) :   0.8705 B(  1-C ,  7-H ) :   0.8910 B(  1-C ,  8-C ) :   0.9601 
B(  2-C ,  3-O ) :   1.2492 B(  2-C ,  5-O ) :   1.8388 B(  3-O , 26-H ) :   0.7375 
B(  5-O , 20-H ) :   0.1623 B(  8-C ,  9-H ) :   0.9024 B(  8-C , 10-H ) :   0.8940 
B(  8-C , 11-C ) :   0.9826 B( 11-C , 12-H ) :   0.8969 B( 11-C , 13-H ) :   0.8995 
B( 11-C , 14-C ) :   0.9737 B( 14-C , 15-H ) :   0.8924 B( 14-C , 16-H ) :   0.8989 
B( 14-C , 21-N ) :   0.9023 B( 17-N , 18-H ) :   0.8115 B( 17-N , 19-H ) :   0.7987 
B( 17-N , 22-C ) :   1.2028 B( 20-H , 21-N ) :   0.6392 B( 21-N , 22-C ) :   1.3335 
B( 22-C , 23-N ) :   1.2181 B( 23-N , 24-H ) :   0.8085 B( 23-N , 25-H ) :   0.7906 


-------
TIMINGS
-------

Total SCF time: 0 days 0 hours 2 min 40 sec 

Total time                  ....     160.347 sec
Sum of individual times     ....     153.557 sec  ( 95.8%)

Fock matrix formation       ....     135.138 sec  ( 84.3%)
  Split-RI-J                ....      12.227 sec  (  9.0% of F)
  Chain of spheres X        ....      76.753 sec  ( 56.8% of F)
  XC integration            ....      30.564 sec  ( 22.6% of F)
    Basis function eval.    ....       7.516 sec  ( 24.6% of XC)
    Density eval.           ....       4.558 sec  ( 14.9% of XC)
    XC-Functional eval.     ....       2.350 sec  (  7.7% of XC)
    XC-Potential eval.      ....       2.691 sec  (  8.8% of XC)
Diagonalization             ....       1.223 sec  (  0.8%)
Density matrix formation    ....       0.113 sec  (  0.1%)
Population analysis         ....       0.024 sec  (  0.0%)
Initial guess               ....       0.029 sec  (  0.0%)
Orbital Transformation      ....       0.000 sec  (  0.0%)
Orbital Orthonormalization  ....       0.000 sec  (  0.0%)
DIIS solution               ....       3.547 sec  (  2.2%)
SOSCF solution              ....       2.309 sec  (  1.4%)
Grid generation             ....      11.174 sec  (  7.0%)

Maximum memory used throughout the entire SCF-calculation: 72.9 MB


-------------------------------------------------------------------------------
                          DFT DISPERSION CORRECTION                            
                                                                               
                              DFTD3 V3.1  Rev 1                                
                          USING Becke-Johnson damping                          
-------------------------------------------------------------------------------
The PBEh-3c composite method is recognized
Using three-body term ABC
Active option DFTDOPT                   ...         4   

molecular C6(AA) [au] = 5754.590363 


            DFT-D V3
 parameters
 s6 scaling factor         :     1.0000 
 a1 scaling factor         :     0.4860 
 s8 scaling factor         :     0.0000 
 a2 scaling factor         :     4.5000 
 Damping factor alpha9(ATM):    16.0000 
 ad hoc parameters k1-k3   :    16.0000     1.3333    -4.0000 

 Edisp/kcal,au: -9.952403027767  -0.015860162081 
 E6   /kcal   : -10.038831362 
 E8   /kcal   :  -0.000000000 
 E6(ABC)      :   0.086428334 
 % E8         :   0.000000000 
 % E6(ABC)    :  -0.868416741 

-------------------------   ----------------
Dispersion correction           -0.015860162
-------------------------   ----------------

------------------   -----------------
gCP correction             0.061681548
------------------   -----------------

-------------------------   --------------------
FINAL SINGLE POINT ENERGY      -605.658359744298
-------------------------   --------------------


                            ***************************************
                            *     ORCA property calculations      *
                            ***************************************

                                    ---------------------
                                    Active property flags
                                    ---------------------
   (+) Dipole Moment


------------------------------------------------------------------------------
                       ORCA ELECTRIC PROPERTIES CALCULATION
------------------------------------------------------------------------------

Dipole Moment Calculation                       ... on
Quadrupole Moment Calculation                   ... off
Polarizability Calculation                      ... off
GBWName                                         ... pbeh-3c.gbw
Electron density                                ... pbeh-3c.scfp
The origin for moment calculation is the CENTER OF MASS  = ( 0.220100, -0.508644 -0.096042)

-------------
DIPOLE MOMENT
-------------
                                X             Y             Z
Electronic contribution:      0.11476      -6.92730      -1.23177
Nuclear contribution   :     -2.79919       6.37205       1.27549
                        -----------------------------------------
Total Dipole Moment    :     -2.68443      -0.55525       0.04372
                        -----------------------------------------
Magnitude (a.u.)       :      2.74160
Magnitude (Debye)      :      6.96860



--------------------
Rotational spectrum 
--------------------
 
Rotational constants in cm-1:     0.048281     0.017680     0.015236 
Rotational constants in MHz :  1447.433386   530.018708   456.765898 

 Dipole components along the rotational axes: 
x,y,z [a.u.] :    -2.680547    -0.564513     0.111251 
x,y,z [Debye]:    -6.813410    -1.434878     0.282777 

 

Timings for individual modules:

Sum of individual times         ...      164.592 sec (=   2.743 min)
GTO integral calculation        ...        3.292 sec (=   0.055 min)   2.0 %
SCF iterations                  ...      161.300 sec (=   2.688 min)  98.0 %
                             ****ORCA TERMINATED NORMALLY****
TOTAL RUN TIME: 0 days 0 hours 2 minutes 50 seconds 660 msec
