
                                 *****************
                                 * O   R   C   A *
                                 *****************

                                            #,                                       
                                            ###                                      
                                            ####                                     
                                            #####                                    
                                            ######                                   
                                           ########,                                 
                                     ,,################,,,,,                         
                               ,,#################################,,                 
                          ,,##########################################,,             
                       ,#########################################, ''#####,          
                    ,#############################################,,   '####,        
                  ,##################################################,,,,####,       
                ,###########''''           ''''###############################       
              ,#####''   ,,,,##########,,,,          '''####'''          '####       
            ,##' ,,,,###########################,,,                        '##       
           ' ,,###''''                  '''############,,,                           
         ,,##''                                '''############,,,,        ,,,,,,###''
      ,#''                                            '''#######################'''  
     '                                                          ''''####''''         
             ,#######,   #######,   ,#######,      ##                                
            ,#'     '#,  ##    ##  ,#'     '#,    #''#        ######   ,####,        
            ##       ##  ##   ,#'  ##            #'  '#       #        #'  '#        
            ##       ##  #######   ##           ,######,      #####,   #    #        
            '#,     ,#'  ##    ##  '#,     ,#' ,#      #,         ##   #,  ,#        
             '#######'   ##     ##  '#######'  #'      '#     #####' # '####'        



                  #######################################################
                  #                        -***-                        #
                  #          Department of theory and spectroscopy      #
                  #    Directorship and core code : Frank Neese         #
                  #        Max Planck Institute fuer Kohlenforschung    #
                  #                Kaiser Wilhelm Platz 1               #
                  #                 D-45470 Muelheim/Ruhr               #
                  #                      Germany                        #
                  #                                                     #
                  #                  All rights reserved                #
                  #                        -***-                        #
                  #######################################################


                         Program Version 5.0.3 -  RELEASE  -


 With contributions from (in alphabetic order):
   Daniel Aravena         : Magnetic Suceptibility
   Michael Atanasov       : Ab Initio Ligand Field Theory (pilot matlab implementation)
   Alexander A. Auer      : GIAO ZORA, VPT2 properties, NMR spectrum
   Ute Becker             : Parallelization
   Giovanni Bistoni       : ED, misc. LED, open-shell LED, HFLD
   Martin Brehm           : Molecular dynamics
   Dmytro Bykov           : SCF Hessian
   Vijay G. Chilkuri      : MRCI spin determinant printing, contributions to CSF-ICE
   Dipayan Datta          : RHF DLPNO-CCSD density
   Achintya Kumar Dutta   : EOM-CC, STEOM-CC
   Dmitry Ganyushin       : Spin-Orbit,Spin-Spin,Magnetic field MRCI
   Miquel Garcia          : C-PCM and meta-GGA Hessian, CC/C-PCM, Gaussian charge scheme
   Yang Guo               : DLPNO-NEVPT2, F12-NEVPT2, CIM, IAO-localization
   Andreas Hansen         : Spin unrestricted coupled pair/coupled cluster methods
   Benjamin Helmich-Paris : MC-RPA, TRAH-SCF, COSX integrals
   Lee Huntington         : MR-EOM, pCC
   Robert Izsak           : Overlap fitted RIJCOSX, COSX-SCS-MP3, EOM
   Marcus Kettner         : VPT2
   Christian Kollmar      : KDIIS, OOCD, Brueckner-CCSD(T), CCSD density, CASPT2, CASPT2-K
   Simone Kossmann        : Meta GGA functionals, TD-DFT gradient, OOMP2, MP2 Hessian
   Martin Krupicka        : Initial AUTO-CI
   Lucas Lang             : DCDCAS
   Marvin Lechner         : AUTO-CI (C++ implementation), FIC-MRCC
   Dagmar Lenk            : GEPOL surface, SMD
   Dimitrios Liakos       : Extrapolation schemes; Compound Job, initial MDCI parallelization
   Dimitrios Manganas     : Further ROCIS development; embedding schemes
   Dimitrios Pantazis     : SARC Basis sets
   Anastasios Papadopoulos: AUTO-CI, single reference methods and gradients
   Taras Petrenko         : DFT Hessian,TD-DFT gradient, ASA, ECA, R-Raman, ABS, FL, XAS/XES, NRVS
   Peter Pinski           : DLPNO-MP2, DLPNO-MP2 Gradient
   Christoph Reimann      : Effective Core Potentials
   Marius Retegan         : Local ZFS, SOC
   Christoph Riplinger    : Optimizer, TS searches, QM/MM, DLPNO-CCSD(T), (RO)-DLPNO pert. Triples
   Tobias Risthaus        : Range-separated hybrids, TD-DFT gradient, RPA, STAB
   Michael Roemelt        : Original ROCIS implementation
   Masaaki Saitow         : Open-shell DLPNO-CCSD energy and density
   Barbara Sandhoefer     : DKH picture change effects
   Avijit Sen             : IP-ROCIS
   Kantharuban Sivalingam : CASSCF convergence, NEVPT2, FIC-MRCI
   Bernardo de Souza      : ESD, SOC TD-DFT
   Georgi Stoychev        : AutoAux, RI-MP2 NMR, DLPNO-MP2 response
   Willem Van den Heuvel  : Paramagnetic NMR
   Boris Wezisla          : Elementary symmetry handling
   Frank Wennmohs         : Technical directorship


 We gratefully acknowledge several colleagues who have allowed us to
 interface, adapt or use parts of their codes:
   Stefan Grimme, W. Hujo, H. Kruse, P. Pracht,  : VdW corrections, initial TS optimization,
                  C. Bannwarth, S. Ehlert          DFT functionals, gCP, sTDA/sTD-DF
   Ed Valeev, F. Pavosevic, A. Kumar             : LibInt (2-el integral package), F12 methods
   Garnet Chan, S. Sharma, J. Yang, R. Olivares  : DMRG
   Ulf Ekstrom                                   : XCFun DFT Library
   Mihaly Kallay                                 : mrcc  (arbitrary order and MRCC methods)
   Jiri Pittner, Ondrej Demel                    : Mk-CCSD
   Frank Weinhold                                : gennbo (NPA and NBO analysis)
   Christopher J. Cramer and Donald G. Truhlar   : smd solvation model
   Lars Goerigk                                  : TD-DFT with DH, B97 family of functionals
   V. Asgeirsson, H. Jonsson                     : NEB implementation
   FAccTs GmbH                                   : IRC, NEB, NEB-TS, DLPNO-Multilevel, CI-OPT
                                                   MM, QMMM, 2- and 3-layer-ONIOM, Crystal-QMMM,
                                                   LR-CPCM, SF, NACMEs, symmetry and pop. for TD-DFT,
                                                   nearIR, NL-DFT gradient (VV10), updates on ESD,
                                                   ML-optimized integration grids
   S Lehtola, MJT Oliveira, MAL Marques          : LibXC Library
   Liviu Ungur et al                             : ANISO software


 Your calculation uses the libint2 library for the computation of 2-el integrals
 For citations please refer to: http://libint.valeyev.net

 Your ORCA version has been built with support for libXC version: 5.1.0
 For citations please refer to: https://tddft.org/programs/libxc/

 This ORCA versions uses:
   CBLAS   interface :  Fast vector & matrix operations
   LAPACKE interface :  Fast linear algebra routines
   SCALAPACK package :  Parallel linear algebra routines
   Shared memory     :  Shared parallel matrices
   BLAS/LAPACK       :  OpenBLAS 0.3.15  USE64BITINT DYNAMIC_ARCH NO_AFFINITY Haswell SINGLE_THREADED
        Core in use  :  Haswell
   Copyright (c) 2011-2014, The OpenBLAS Project




***************************************
The coordinates will be read from file: 8d.xyz
***************************************


Your calculation utilizes the geometrical counterpoise correction gCP
Please cite in your paper:
H.Kruse, S. Grimme J.Chem.Phys., 136, (2012), 154101 
   

Your calculation utilizes the atom-pairwise dispersion correction
with the Becke-Johnson damping scheme (D3BJ)
Cite in your paper:
S.Grimme, S.Ehrlich, L.Goerigk, J Comput Chem, (2011), 32, 1456–1465 
S.Grimme, J.Antony, S.Ehrlich and H.Krieg, J.Chem.Phys., 132, (2010), 154104 
   

Your calculation employs the composite approach PBEh-3c.
Please cite in your paper:
S. Grimme, J. G. Brandenburg, C. Bannwarth, A. Hansen J.Chem.Phys., 143, (2015), 054107 
   

================================================================================

----- Orbital basis set information -----
Your calculation utilizes the basis: def2-mSVP

----- AuxJ basis set information -----
Your calculation utilizes the auxiliary basis: def2/J
   F. Weigend, Phys. Chem. Chem. Phys. 8, 1057 (2006).

================================================================================
                                        WARNINGS
                       Please study these warnings very carefully!
================================================================================


INFO   : the flag for use of the SHARK integral package has been found!

================================================================================
                                       INPUT FILE
================================================================================
NAME = pbeh-3c.inp
|  1> ! PBEh-3c def2/J TightSCF DefGrid3
|  2> 
|  3> %maxcore 60000
|  4> 
|  5> %pal
|  6> nprocs 4
|  7> end
|  8> 
|  9> *xyzfile -1 1 8d.xyz
| 10> 
| 11>                          ****END OF INPUT****
================================================================================

                       ****************************
                       * Single Point Calculation *
                       ****************************

---------------------------------
CARTESIAN COORDINATES (ANGSTROEM)
---------------------------------
  H     -3.366511    1.023476   -4.825324
  O     -2.949078    0.590355   -4.063814
  C     -3.718106    0.914701   -2.890976
  H     -4.777762    0.677274   -3.044342
  H     -3.621744    1.981787   -2.648901
  C     -3.188200    0.105099   -1.723587
  H     -3.681768    0.447687   -0.809240
  O     -3.522570   -1.309541   -1.901359
  C     -2.333443   -2.090744   -1.985477
  H     -2.167091   -2.652205   -1.062877
  N     -2.505284   -3.097166   -3.037998
  C     -2.700896   -2.685159   -4.336798
  H     -2.727570   -1.606717   -4.468781
  C     -2.871317   -3.549650   -5.364419
  H     -3.016355   -3.191822   -6.374953
  C     -2.878016   -4.969008   -5.111685
  O     -3.024139   -5.866474   -5.949743
  N     -2.725589   -5.299531   -3.756777
  H     -2.749301   -6.289066   -3.523823
  C     -2.545479   -4.447778   -2.685751
  O     -2.436772   -4.853727   -1.530783
  C     -1.665620    0.166351   -1.553851
  H     -1.242849    1.077992   -1.976520
  C     -1.172185   -1.110995   -2.245215
  H     -1.060006   -0.924848   -3.314537
  O      0.073536   -1.587253   -1.762518
  H      0.054005   -1.422937   -0.798662
  O     -1.279033    0.039951   -0.173757
  P     -1.151295    1.391284    0.779281
  O     -1.887378    1.130425    2.053996
  O     -1.430491    2.594411   -0.074187
  O      0.434650    1.309887    1.167141
  C      1.404313    1.411218    0.107959
  H      1.237963    2.332099   -0.461380
  H      1.318483    0.555643   -0.572832
  C      2.790086    1.403318    0.709280
  H      3.520233    1.418379   -0.110080
  O      2.991199    2.590542    1.524055
  C      3.714220    2.290976    2.699351
  H      4.549066    2.984073    2.818312
  N      2.808118    2.469335    3.888914
  C      1.491944    2.826195    3.744209
  H      1.174242    2.959699    2.719283
  C      0.652953    2.977362    4.800381
  H     -0.381367    3.254746    4.646863
  C      1.131592    2.758415    6.139054
  O      0.482060    2.860337    7.188550
  N      2.485141    2.389810    6.194179
  H      2.878533    2.220949    7.116628
  C      3.361843    2.228756    5.142840
  O      4.539472    1.903992    5.299996
  C      3.103546    0.233429    1.638160
  H      2.217240   -0.059290    2.208239
  C      4.176041    0.831438    2.566060
  H      4.244412    0.323280    3.530083
  O      5.439356    0.834367    1.898599
  H      5.426609    0.042172    1.323121
  O      3.597954   -0.860386    0.861570
  H      3.478403   -1.676908    1.374844

----------------------------
CARTESIAN COORDINATES (A.U.)
----------------------------
  NO LB      ZA    FRAG     MASS         X           Y           Z
   0 H     1.0000    0     1.008   -6.361785    1.934090   -9.118540
   1 O     8.0000    0    15.999   -5.572949    1.115609   -7.679496
   2 C     6.0000    0    12.011   -7.026202    1.728535   -5.463153
   3 H     1.0000    0     1.008   -9.028662    1.279862   -5.752974
   4 H     1.0000    0     1.008   -6.844103    3.745035   -5.005698
   5 C     6.0000    0    12.011   -6.024825    0.198608   -3.257108
   6 H     1.0000    0     1.008   -6.957534    0.846005   -1.529242
   7 O     8.0000    0    15.999   -6.656692   -2.474673   -3.593049
   8 C     6.0000    0    12.011   -4.409569   -3.950934   -3.752008
   9 H     1.0000    0     1.008   -4.095208   -5.011941   -2.008546
  10 N     7.0000    0    14.007   -4.734301   -5.852796   -5.740984
  11 C     6.0000    0    12.011   -5.103954   -5.074215   -8.195361
  12 H     1.0000    0     1.008   -5.154360   -3.036256   -8.444772
  13 C     6.0000    0    12.011   -5.426002   -6.707866  -10.137283
  14 H     1.0000    0     1.008   -5.700084   -6.031669  -12.046915
  15 C     6.0000    0    12.011   -5.438663   -9.390065   -9.659685
  16 O     8.0000    0    15.999   -5.714795  -11.086028  -11.243384
  17 N     7.0000    0    14.007   -5.150617  -10.014662   -7.099280
  18 H     1.0000    0     1.008   -5.195425  -11.884612   -6.659060
  19 C     6.0000    0    12.011   -4.810257   -8.405083   -5.075334
  20 O     8.0000    0    15.999   -4.604832   -9.172215   -2.892761
  21 C     6.0000    0    12.011   -3.147566    0.314358   -2.936354
  22 H     1.0000    0     1.008   -2.348644    2.037110   -3.735081
  23 C     6.0000    0    12.011   -2.215108   -2.099477   -4.242842
  24 H     1.0000    0     1.008   -2.003120   -1.747710   -6.263566
  25 O     8.0000    0    15.999    0.138964   -2.999474   -3.330677
  26 H     1.0000    0     1.008    0.102055   -2.688961   -1.509253
  27 O     8.0000    0    15.999   -2.417022    0.075496   -0.328353
  28 P    15.0000    0    30.974   -2.175631    2.629146    1.472627
  29 O     8.0000    0    15.999   -3.566627    2.136193    3.881489
  30 O     8.0000    0    15.999   -2.703235    4.902726   -0.140193
  31 O     8.0000    0    15.999    0.821370    2.475328    2.205578
  32 C     6.0000    0    12.011    2.653766    2.666816    0.204014
  33 H     1.0000    0     1.008    2.339411    4.407029   -0.871881
  34 H     1.0000    0     1.008    2.491572    1.050012   -1.082496
  35 C     6.0000    0    12.011    5.272498    2.651887    1.340345
  36 H     1.0000    0     1.008    6.652276    2.680347   -0.208021
  37 O     8.0000    0    15.999    5.652548    4.895414    2.880046
  38 C     6.0000    0    12.011    7.018859    4.329318    5.101035
  39 H     1.0000    0     1.008    8.596489    5.639081    5.325839
  40 N     7.0000    0    14.007    5.306574    4.666367    7.348983
  41 C     6.0000    0    12.011    2.819366    5.340734    7.075530
  42 H     1.0000    0     1.008    2.218996    5.593021    5.138700
  43 C     6.0000    0    12.011    1.233902    5.626398    9.071405
  44 H     1.0000    0     1.008   -0.720679    6.150578    8.781299
  45 C     6.0000    0    12.011    2.138398    5.212648   11.601130
  46 O     8.0000    0    15.999    0.910962    5.405253   13.584392
  47 N     7.0000    0    14.007    4.696236    4.516087   11.705303
  48 H     1.0000    0     1.008    5.439638    4.196985   13.448477
  49 C     6.0000    0    12.011    6.352963    4.211738    9.718558
  50 O     8.0000    0    15.999    8.578360    3.598023   10.015541
  51 C     6.0000    0    12.011    5.864852    0.441117    3.095673
  52 H     1.0000    0     1.008    4.189977   -0.112043    4.172967
  53 C     6.0000    0    12.011    7.891574    1.571190    4.849151
  54 H     1.0000    0     1.008    8.020776    0.610910    6.670891
  55 O     8.0000    0    15.999   10.278893    1.576725    3.587833
  56 H     1.0000    0     1.008   10.254804    0.079694    2.500337
  57 O     8.0000    0    15.999    6.799147   -1.625895    1.628131
  58 H     1.0000    0     1.008    6.573229   -3.168898    2.598079

--------------------------------
INTERNAL COORDINATES (ANGSTROEM)
--------------------------------
 H      0   0   0     0.000000000000     0.00000000     0.00000000
 O      1   0   0     0.970433908790     0.00000000     0.00000000
 C      2   1   0     1.439497893277   107.99785227     0.00000000
 H      3   2   1     1.096706160318   110.69963275    52.79578420
 H      3   2   1     1.098434660909   110.58390441   291.86179249
 C      3   2   1     1.516262866797   108.67963984   172.78603095
 H      6   3   2     1.094078237388   108.57701013   172.57628554
 O      6   3   2     1.464448769966   110.03102801   289.99186176
 C      8   6   3     1.425263667515   110.25127416   118.47468259
 H      9   8   6     1.092750127984   111.02678082   105.55845682
 N      9   8   6     1.466360841012   108.71014481   221.46828115
 C     11   9   8     1.376552692621   119.23964849    62.34408204
 H     12  11   9     1.086815017704   114.52345659   359.02073548
 C     12  11   9     1.353658949469   122.88871965   180.19025625
 H     14  12  11     1.081783575247   120.98262837   180.40707303
 C     14  12  11     1.441699499067   119.75164026     1.22853761
 O     16  14  12     1.236582624421   126.60240261   179.91962711
 N     16  14  12     1.402944934285   113.62425765     1.25631837
 H     18  16  14     1.016862261510   116.61379994   178.38668984
 C     18  16  14     1.380224333598   128.18488520   358.38402052
 O     20  18  16     1.229049687288   122.47421614   179.20200602
 C      6   3   2     1.533235996899   114.26479126    49.32034816
 H     22   6   3     1.090171099118   112.06101834    25.30612423
 C     22   6   3     1.533974220692   103.66676470   262.67523576
 H     24  22   6     1.091184447196   109.43197259    85.10529734
 O     24  22   6     1.418322533534   114.12647345   205.57970522
 H     26  24  22     0.977956963362   105.15683434    37.65493831
 O     22   6   3     1.438779718045   111.68496069   149.17538005
 P     28  22   6     1.658523642917   120.02022032   270.86996304
 O     29  28  22     1.494912937284   108.05241228   131.53961387
 O     29  28  22     1.501289881296   108.17781540   357.34556090
 O     29  28  22     1.634711910732    99.81637785   241.48154697
 C     32  29  28     1.439576158167   118.38574255    62.92181907
 H     33  32  29     1.095372395606   109.83470164    55.07178965
 H     33  32  29     1.096747097945   110.43162480   295.14605894
 C     33  32  29     1.510634280149   108.94479765   176.26178766
 H     36  33  32     1.097584955635   108.24126525   176.55545645
 O     36  33  32     1.453892610339   110.22448806   294.91640916
 C     38  36  33     1.412027187850   111.34879560   140.70004965
 H     39  38  36     1.091559832035   110.34208260   129.78402472
 N     39  38  36     1.505952762164   108.92096452   247.43362098
 C     41  39  38     1.371350270391   121.66421662     1.91794478
 H     42  41  39     1.081310237790   114.46502974     0.24327590
 C     42  41  39     1.357297770526   122.69284607   179.20849273
 H     44  42  41     1.081816656685   120.60572843   180.33844739
 C     44  42  41     1.438428828809   120.10200675   359.83502396
 O     46  44  42     1.238435677253   126.98598212   179.95868269
 N     46  44  42     1.403924438049   113.41060162   359.80823909
 H     48  46  44     1.016947421000   116.88289226   180.05185167
 C     48  46  44     1.378354375855   127.87608982     0.23759176
 O     50  48  46     1.231657589931   122.79491293   179.80076459
 C     36  33  32     1.526340468399   115.76277977    53.68301063
 H     52  36  33     1.093715103438   110.84970330   324.97376139
 C     39  38  36     1.536651282512   106.45104130     7.43703944
 H     54  39  38     1.091897278616   112.59852625   211.26488965
 O     54  39  38     1.428802969839   107.71616620    88.57607148
 H     56  54  39     0.979239514030   105.15100522   216.83339736
 O     52  36  33     1.429672178631   109.07825606    87.50480167
 H     58  52  36     0.971828958544   108.26323680   201.02814609

---------------------------
INTERNAL COORDINATES (A.U.)
---------------------------
 H      0   0   0     0.000000000000     0.00000000     0.00000000
 O      1   0   0     1.833854318683     0.00000000     0.00000000
 C      2   1   0     2.720256788650   107.99785227     0.00000000
 H      3   2   1     2.072474292385   110.69963275    52.79578420
 H      3   2   1     2.075740685125   110.58390441   291.86179249
 C      3   2   1     2.865321565280   108.67963984   172.78603095
 H      6   3   2     2.067508237747   108.57701013   172.57628554
 O      6   3   2     2.767407112393   110.03102801   289.99186176
 C      8   6   3     2.693358000232   110.25127416   118.47468259
 H      9   8   6     2.064998474697   111.02678082   105.55845682
 N      9   8   6     2.771020403019   108.71014481   221.46828115
 C     11   9   8     2.601307597966   119.23964849    62.34408204
 H     12  11   9     2.053782741694   114.52345659   359.02073548
 C     12  11   9     2.558044693227   122.88871965   180.19025625
 H     14  12  11     2.044274693392   120.98262837   180.40707303
 C     14  12  11     2.724417220647   119.75164026     1.22853761
 O     16  14  12     2.336802502121   126.60240261   179.91962711
 N     16  14  12     2.651181706770   113.62425765     1.25631837
 H     18  16  14     1.921591190173   116.61379994   178.38668984
 C     18  16  14     2.608245993874   128.18488520   358.38402052
 O     20  18  16     2.322567313956   122.47421614   179.20200602
 C      6   3   2     2.897396132809   114.26479126    49.32034816
 H     22   6   3     2.060124816449   112.06101834    25.30612423
 C     22   6   3     2.898791173603   103.66676470   262.67523576
 H     24  22   6     2.062039766794   109.43197259    85.10529734
 O     24  22   6     2.680241157948   114.12647345   205.57970522
 H     26  24  22     1.848070831515   105.15683434    37.65493831
 O     22   6   3     2.718899634145   111.68496069   149.17538005
 P     28  22   6     3.134155471747   120.02022032   270.86996304
 O     29  28  22     2.824976045522   108.05241228   131.53961387
 O     29  28  22     2.837026723276   108.17781540   357.34556090
 O     29  28  22     3.089157819143    99.81637785   241.48154697
 C     32  29  28     2.720404687858   118.38574255    62.92181907
 H     33  32  29     2.069953842353   109.83470164    55.07178965
 H     33  32  29     2.072551653290   110.43162480   295.14605894
 C     33  32  29     2.854685077995   108.94479765   176.26178766
 H     36  33  32     2.074134974862   108.24126525   176.55545645
 O     36  33  32     2.747458861672   110.22448806   294.91640916
 C     38  36  33     2.668344678688   111.34879560   140.70004965
 H     39  38  36     2.062749141335   110.34208260   129.78402472
 N     39  38  36     2.845838291112   108.92096452   247.43362098
 C     41  39  38     2.591476444718   121.66421662     1.91794478
 H     42  41  39     2.043380215228   114.46502974     0.24327590
 C     42  41  39     2.564921068476   122.69284607   179.20849273
 H     44  42  41     2.044337208250   120.60572843   180.33844739
 C     44  42  41     2.718236549586   120.10200675   359.83502396
 O     46  44  42     2.340304264485   126.98598212   179.95868269
 N     46  44  42     2.653032700632   113.41060162   359.80823909
 H     48  46  44     1.921752118287   116.88289226   180.05185167
 C     48  46  44     2.604712285857   127.87608982     0.23759176
 O     50  48  46     2.327495535734   122.79491293   179.80076459
 C     36  33  32     2.884365472396   115.76277977    53.68301063
 H     52  36  33     2.066822014031   110.84970330   324.97376139
 C     39  38  36     2.903850087287   106.45104130     7.43703944
 H     54  39  38     2.063386822958   112.59852625   211.26488965
 O     54  39  38     2.700046312329   107.71616620    88.57607148
 H     56  54  39     1.850494501031   105.15100522   216.83339736
 O     52  36  33     2.701688878900   109.07825606    87.50480167
 H     58  52  36     1.836490580661   108.26323680   201.02814609

---------------------
BASIS SET INFORMATION
---------------------
There are 5 groups of distinct atoms

 Group   1 Type H   : 4s contracted to 2s pattern {31}
 Group   2 Type O   : 8s4p1d contracted to 4s2p1d pattern {5111/31/1}
 Group   3 Type C   : 8s4p1d contracted to 4s2p1d pattern {5111/31/1}
 Group   4 Type N   : 8s4p1d contracted to 4s2p1d pattern {5111/31/1}
 Group   5 Type P   : 10s7p1d contracted to 4s3p1d pattern {5311/511/1}

Atom   0H    basis set group =>   1
Atom   1O    basis set group =>   2
Atom   2C    basis set group =>   3
Atom   3H    basis set group =>   1
Atom   4H    basis set group =>   1
Atom   5C    basis set group =>   3
Atom   6H    basis set group =>   1
Atom   7O    basis set group =>   2
Atom   8C    basis set group =>   3
Atom   9H    basis set group =>   1
Atom  10N    basis set group =>   4
Atom  11C    basis set group =>   3
Atom  12H    basis set group =>   1
Atom  13C    basis set group =>   3
Atom  14H    basis set group =>   1
Atom  15C    basis set group =>   3
Atom  16O    basis set group =>   2
Atom  17N    basis set group =>   4
Atom  18H    basis set group =>   1
Atom  19C    basis set group =>   3
Atom  20O    basis set group =>   2
Atom  21C    basis set group =>   3
Atom  22H    basis set group =>   1
Atom  23C    basis set group =>   3
Atom  24H    basis set group =>   1
Atom  25O    basis set group =>   2
Atom  26H    basis set group =>   1
Atom  27O    basis set group =>   2
Atom  28P    basis set group =>   5
Atom  29O    basis set group =>   2
Atom  30O    basis set group =>   2
Atom  31O    basis set group =>   2
Atom  32C    basis set group =>   3
Atom  33H    basis set group =>   1
Atom  34H    basis set group =>   1
Atom  35C    basis set group =>   3
Atom  36H    basis set group =>   1
Atom  37O    basis set group =>   2
Atom  38C    basis set group =>   3
Atom  39H    basis set group =>   1
Atom  40N    basis set group =>   4
Atom  41C    basis set group =>   3
Atom  42H    basis set group =>   1
Atom  43C    basis set group =>   3
Atom  44H    basis set group =>   1
Atom  45C    basis set group =>   3
Atom  46O    basis set group =>   2
Atom  47N    basis set group =>   4
Atom  48H    basis set group =>   1
Atom  49C    basis set group =>   3
Atom  50O    basis set group =>   2
Atom  51C    basis set group =>   3
Atom  52H    basis set group =>   1
Atom  53C    basis set group =>   3
Atom  54H    basis set group =>   1
Atom  55O    basis set group =>   2
Atom  56H    basis set group =>   1
Atom  57O    basis set group =>   2
Atom  58H    basis set group =>   1
---------------------------------
AUXILIARY/J BASIS SET INFORMATION
---------------------------------
There are 5 groups of distinct atoms

 Group   1 Type H   : 5s2p1d contracted to 3s1p1d pattern {311/2/1}
 Group   2 Type O   : 12s5p4d2f1g contracted to 6s4p3d1f1g pattern {711111/2111/211/2/1}
 Group   3 Type C   : 12s5p4d2f1g contracted to 6s4p3d1f1g pattern {711111/2111/211/2/1}
 Group   4 Type N   : 12s5p4d2f1g contracted to 6s4p3d1f1g pattern {711111/2111/211/2/1}
 Group   5 Type P   : 14s5p5d2f1g contracted to 8s4p3d1f1g pattern {71111111/2111/311/2/1}

Atom   0H    basis set group =>   1
Atom   1O    basis set group =>   2
Atom   2C    basis set group =>   3
Atom   3H    basis set group =>   1
Atom   4H    basis set group =>   1
Atom   5C    basis set group =>   3
Atom   6H    basis set group =>   1
Atom   7O    basis set group =>   2
Atom   8C    basis set group =>   3
Atom   9H    basis set group =>   1
Atom  10N    basis set group =>   4
Atom  11C    basis set group =>   3
Atom  12H    basis set group =>   1
Atom  13C    basis set group =>   3
Atom  14H    basis set group =>   1
Atom  15C    basis set group =>   3
Atom  16O    basis set group =>   2
Atom  17N    basis set group =>   4
Atom  18H    basis set group =>   1
Atom  19C    basis set group =>   3
Atom  20O    basis set group =>   2
Atom  21C    basis set group =>   3
Atom  22H    basis set group =>   1
Atom  23C    basis set group =>   3
Atom  24H    basis set group =>   1
Atom  25O    basis set group =>   2
Atom  26H    basis set group =>   1
Atom  27O    basis set group =>   2
Atom  28P    basis set group =>   5
Atom  29O    basis set group =>   2
Atom  30O    basis set group =>   2
Atom  31O    basis set group =>   2
Atom  32C    basis set group =>   3
Atom  33H    basis set group =>   1
Atom  34H    basis set group =>   1
Atom  35C    basis set group =>   3
Atom  36H    basis set group =>   1
Atom  37O    basis set group =>   2
Atom  38C    basis set group =>   3
Atom  39H    basis set group =>   1
Atom  40N    basis set group =>   4
Atom  41C    basis set group =>   3
Atom  42H    basis set group =>   1
Atom  43C    basis set group =>   3
Atom  44H    basis set group =>   1
Atom  45C    basis set group =>   3
Atom  46O    basis set group =>   2
Atom  47N    basis set group =>   4
Atom  48H    basis set group =>   1
Atom  49C    basis set group =>   3
Atom  50O    basis set group =>   2
Atom  51C    basis set group =>   3
Atom  52H    basis set group =>   1
Atom  53C    basis set group =>   3
Atom  54H    basis set group =>   1
Atom  55O    basis set group =>   2
Atom  56H    basis set group =>   1
Atom  57O    basis set group =>   2
Atom  58H    basis set group =>   1


           ************************************************************
           *        Program running with 4 parallel MPI-processes     *
           *              working on a common directory               *
           ************************************************************
------------------------------------------------------------------------------
                           ORCA GTO INTEGRAL CALCULATION
                           -- RI-GTO INTEGRALS CHOSEN --
------------------------------------------------------------------------------
------------------------------------------------------------------------------
                   ___                                                        
                  /   \      - P O W E R E D   B Y -                         
                 /     \                                                     
                 |  |  |   _    _      __       _____    __    __             
                 |  |  |  | |  | |    /  \     |  _  \  |  |  /  |          
                  \  \/   | |  | |   /    \    | | | |  |  | /  /          
                 / \  \   | |__| |  /  /\  \   | |_| |  |  |/  /          
                |  |  |   |  __  | /  /__\  \  |    /   |      \           
                |  |  |   | |  | | |   __   |  |    \   |  |\   \          
                \     /   | |  | | |  |  |  |  | |\  \  |  | \   \       
                 \___/    |_|  |_| |__|  |__|  |_| \__\ |__|  \__/        
                                                                              
                      - O R C A' S   B I G   F R I E N D -                    
                                      &                                       
                       - I N T E G R A L  F E E D E R -                       
                                                                              
 v1 FN, 2020, v2 2021                                                         
------------------------------------------------------------------------------


Reading SHARK input file pbeh-3c.SHARKINP.tmp ... ok
----------------------
SHARK INTEGRAL PACKAGE
----------------------

Number of atoms                             ...     59
Number of basis functions                   ...    602
Number of shells                            ...    304
Maximum angular momentum                    ...      2
Integral batch strategy                     ... SHARK/LIBINT Hybrid
RI-J (if used) integral strategy            ... SPLIT-RIJ (Revised 2003 algorithm where possible)
Printlevel                                  ...      1
Contraction scheme used                     ... SEGMENTED contraction
Coulomb Range Separation                    ... NOT USED
Exchange Range Separation                   ... NOT USED
Finite Nucleus Model                        ... NOT USED
Auxiliary Coulomb fitting basis             ... AVAILABLE
   # of basis functions in Aux-J            ...   2057
   # of shells in Aux-J                     ...    667
   Maximum angular momentum in Aux-J        ...      4
Auxiliary J/K fitting basis                 ... NOT available
Auxiliary Correlation fitting basis         ... NOT available
Auxiliary 'external' fitting basis          ... NOT available
Integral threshold                          ...     2.500000e-11
Primitive cut-off                           ...     2.500000e-12
Primitive pair pre-selection threshold      ...     2.500000e-12

Calculating pre-screening integrals         ... done (  0.1 sec) Dimension = 304
Organizing shell pair data                  ... done (  0.4 sec)
Shell pair information
Total number of shell pairs                 ...     46360
Shell pairs after pre-screening             ...     20915
Total number of primitive shell pairs       ...    165582
Primitive shell pairs kept                  ...     45767
          la=0 lb=0:   7397 shell pairs
          la=1 lb=0:   7309 shell pairs
          la=1 lb=1:   1720 shell pairs
          la=2 lb=0:   2777 shell pairs
          la=2 lb=1:   1421 shell pairs
          la=2 lb=2:    291 shell pairs

Calculating one electron integrals          ... done (  0.1 sec)
Calculating RI/J V-Matrix + Cholesky decomp.... done (  2.0 sec)
Calculating Nuclear repulsion               ... done (  0.0 sec) ENN=   4575.551073391182 Eh

SHARK setup successfully completed in   3.9 seconds

Maximum memory used throughout the entire GTOINT-calculation: 52.5 MB


           ************************************************************
           *        Program running with 4 parallel MPI-processes     *
           *              working on a common directory               *
           ************************************************************
-------------------------------------------------------------------------------
                                 ORCA SCF
-------------------------------------------------------------------------------

------------
SCF SETTINGS
------------
Hamiltonian:
 Density Functional     Method          .... DFT(GTOs)
 Exchange Functional    Exchange        .... PBE
   PBE kappa parameter   XKappa         ....  1.024500
   PBE mue parameter    XMuePBE         ....  0.123457
 Correlation Functional Correlation     .... PBE
   PBE beta parameter  CBetaPBE         ....  0.030000
 LDA part of GGA corr.  LDAOpt          .... PW91-LDA
 Gradients option       PostSCFGGA      .... off
 Hybrid DFT is turned on
   Fraction HF Exchange ScalHFX         ....  0.420000
   Scaling of DF-GGA-X  ScalDFX         ....  0.580000
   Scaling of DF-GGA-C  ScalDFC         ....  1.000000
   Scaling of DF-LDA-C  ScalLDAC        ....  1.000000
   Perturbative correction              ....  0.000000
   Density functional embedding theory  .... OFF
 RI-approximation to the Coulomb term is turned on
   Number of AuxJ basis functions       .... 2057
   RIJ-ON(X) (HFX calculated with O(N)) .... on
   Number of AuxJ basis functions       .... 2057
   RIJ-COSX (HFX calculated with COS-X)).... on


General Settings:
 Integral files         IntName         .... pbeh-3c
 Hartree-Fock type      HFTyp           .... RHF
 Total Charge           Charge          ....   -1
 Multiplicity           Mult            ....    1
 Number of Electrons    NEL             ....  286
 Basis Dimension        Dim             ....  602
 Nuclear Repulsion      ENuc            ....   4575.5510733912 Eh

Convergence Acceleration:
 DIIS                   CNVDIIS         .... on
   Start iteration      DIISMaxIt       ....    12
   Startup error        DIISStart       ....  0.200000
   # of expansion vecs  DIISMaxEq       ....     5
   Bias factor          DIISBfac        ....   1.050
   Max. coefficient     DIISMaxC        ....  10.000
 Trust-Rad. Augm. Hess. CNVTRAH         .... auto
   Auto Start mean grad. ratio tolernc. ....  1.125000
   Auto Start start iteration           ....    20
   Auto Start num. interpolation iter.  ....    10
   Max. Number of Micro iterations      ....    16
   Max. Number of Macro iterations      .... Maxiter - #DIIS iter
   Number of Davidson start vectors     ....     2
   Converg. threshold I  (grad. norm)   ....   1.000e-05
   Converg. threshold II (energy diff.) ....   1.000e-08
   Grad. Scal. Fac. for Micro threshold ....   0.100
   Minimum threshold for Micro iter.    ....   0.010
   NR start threshold (gradient norm)   ....   0.001
   Initial trust radius                 ....   0.400
   Minimum AH scaling param. (alpha)    ....   1.000
   Maximum AH scaling param. (alpha)    .... 1000.000
   Orbital update algorithm             .... Taylor
   White noise on init. David. guess    .... on
   Maximum white noise                  ....   0.010
   Quad. conv. algorithm                .... NR
   COSX micro iterations for RIJONX calc.... off
 SOSCF                  CNVSOSCF        .... on
   Start iteration      SOSCFMaxIt      ....   150
   Startup grad/error   SOSCFStart      ....  0.003300
 Level Shifting         CNVShift        .... on
   Level shift para.    LevelShift      ....    0.2500
   Turn off err/grad.   ShiftErr        ....    0.0010
 Zerner damping         CNVZerner       .... off
 Static damping         CNVDamp         .... on
   Fraction old density DampFac         ....    0.7000
   Max. Damping (<1)    DampMax         ....    0.9800
   Min. Damping (>=0)   DampMin         ....    0.0000
   Turn off err/grad.   DampErr         ....    0.1000
 Fernandez-Rico         CNVRico         .... off

SCF Procedure:
 Maximum # iterations   MaxIter         ....   125
 SCF integral mode      SCFMode         .... Direct
   Integral package                     .... SHARK and LIBINT hybrid scheme
 Reset frequency        DirectResetFreq ....    20
 Integral Threshold     Thresh          ....  2.500e-11 Eh
 Primitive CutOff       TCut            ....  2.500e-12 Eh

Convergence Tolerance:
 Convergence Check Mode ConvCheckMode   .... Total+1el-Energy
 Convergence forced     ConvForced      .... 0
 Energy Change          TolE            ....  1.000e-08 Eh
 1-El. energy change                    ....  1.000e-05 Eh
 Orbital Gradient       TolG            ....  1.000e-05
 Orbital Rotation angle TolX            ....  1.000e-05
 DIIS Error             TolErr          ....  5.000e-07


Diagonalization of the overlap matrix:
Smallest eigenvalue                        ... 1.585e-03
Time for diagonalization                   ...    0.102 sec
Threshold for overlap eigenvalues          ... 1.000e-08
Number of eigenvalues below threshold      ... 0
Time for construction of square roots      ...    0.175 sec
Total time needed                          ...    0.280 sec

--------------------------------
INITIAL GUESS: MINIMAL BASIS EHT
--------------------------------
The minimal basis has 211 functions
EHT matrix was diagonalized
Basis set overlap was calculated now projecting the orbitals
Using GuessMode=FMatrix for the initial guess
C*T matrix was formed
Effective Fockian was calculated
Effective Fockian was diagonalized
Initial density was built
                      ------------------
                      INITIAL GUESS DONE
                      ------------------
-------------------
DFT GRID GENERATION
-------------------

General Integration Accuracy     IntAcc      ... 4.959
Radial Grid Type                 RadialGrid  ... OptM3 with GC (2021)
Angular Grid (max. ang.)         AngularGrid ... 6 (Lebedev-590)
Angular grid pruning method      GridPruning ... 4 (adaptive)
Weight generation scheme         WeightScheme... Becke
Basis function cutoff            BFCut       ... 1.0000e-11
Integration weight cutoff        WCut        ... 1.0000e-14
Angular grids for H and He will be reduced by one unit
Partially contracted basis set               ... off
Rotationally invariant grid construction     ... off

Total number of grid points                  ...   710981
Total number of batches                      ...    11142
Average number of points per batch           ...       63
Average number of grid points per atom       ...    12051
Time for grid setup =   17.417 sec

--------------------
COSX GRID GENERATION
--------------------

GRIDX 1
-------
General Integration Accuracy     IntAcc      ... 4.020
Radial Grid Type                 RadialGrid  ... OptM3 with GC (2021)
Angular Grid (max. ang.)         AngularGrid ... 2 (Lebedev-110)
Angular grid pruning method      GridPruning ... 4 (adaptive)
Weight generation scheme         WeightScheme... Becke
Basis function cutoff            BFCut       ... 1.0000e-11
Integration weight cutoff        WCut        ... 1.0000e-14
Angular grids for H and He will be reduced by one unit
Partially contracted basis set               ... on
Rotationally invariant grid construction     ... off

Total number of grid points                  ...    80948
Total number of batches                      ...     1294
Average number of points per batch           ...       62
Average number of grid points per atom       ...     1372
UseSFitting                                  ... on

GRIDX 2
-------
General Integration Accuracy     IntAcc      ... 4.338
Radial Grid Type                 RadialGrid  ... OptM3 with GC (2021)
Angular Grid (max. ang.)         AngularGrid ... 3 (Lebedev-194)
Angular grid pruning method      GridPruning ... 4 (adaptive)
Weight generation scheme         WeightScheme... Becke
Basis function cutoff            BFCut       ... 1.0000e-11
Integration weight cutoff        WCut        ... 1.0000e-14
Angular grids for H and He will be reduced by one unit
Partially contracted basis set               ... on
Rotationally invariant grid construction     ... off

Total number of grid points                  ...   177424
Total number of batches                      ...     2800
Average number of points per batch           ...       63
Average number of grid points per atom       ...     3007
UseSFitting                                  ... on

GRIDX 3
-------
General Integration Accuracy     IntAcc      ... 4.871
Radial Grid Type                 RadialGrid  ... OptM3 with GC (2021)
Angular Grid (max. ang.)         AngularGrid ... 4 (Lebedev-302)
Angular grid pruning method      GridPruning ... 4 (adaptive)
Weight generation scheme         WeightScheme... Becke
Basis function cutoff            BFCut       ... 1.0000e-11
Integration weight cutoff        WCut        ... 1.0000e-14
Angular grids for H and He will be reduced by one unit
Partially contracted basis set               ... on
Rotationally invariant grid construction     ... off

Total number of grid points                  ...   326443
Total number of batches                      ...     5130
Average number of points per batch           ...       63
Average number of grid points per atom       ...     5533
UseSFitting                                  ... on

Time for X-Grid setup             =   13.425 sec

--------------
SCF ITERATIONS
--------------
ITER       Energy         Delta-E        Max-DP      RMS-DP      [F,P]     Damp
               ***  Starting incremental Fock matrix formation  ***
  0  -2300.5325588789   0.000000000000 0.46287089  0.00447624  0.7209595 0.7000
  1  -2303.6032338699  -3.070674991008 0.16466802  0.00234355  0.3520202 0.7000
  2  -2305.0181591732  -1.414925303353 0.08032900  0.00131288  0.2482537 0.7000
                               ***Turning on DIIS***
  3  -2306.0182698687  -1.000110695482 0.08049803  0.00091268  0.1714073 0.7000
  4  -2306.7402951149  -0.722025246149 0.05376345  0.00065371  0.1168168 0.7000
  5  -2307.2489401544  -0.508645039527 0.11918936  0.00157440  0.0808320 0.0000
  6  -2308.4527705192  -1.203830364850 0.00778799  0.00008703  0.0056200 0.0000
                      *** Initiating the SOSCF procedure ***
                           *** Shutting down DIIS ***
                      *** Re-Reading the Fockian *** 
                      *** Removing any level shift *** 
ITER      Energy       Delta-E        Grad      Rot      Max-DP    RMS-DP
  7  -2308.45342553  -0.0006550138  0.000859  0.000859  0.003144  0.000041
               *** Restarting incremental Fock matrix formation ***
  8  -2308.45358991  -0.0001643737  0.000902  0.002830  0.002588  0.000030
  9  -2308.45362846  -0.0000385547  0.000354  0.001038  0.003121  0.000031
 10  -2308.45363522  -0.0000067579  0.000223  0.000585  0.001359  0.000014
 11  -2308.45364277  -0.0000075485  0.000018  0.000034  0.000127  0.000002
 12  -2308.45364277   0.0000000019  0.000026  0.000032  0.000079  0.000001
 13  -2308.45364287  -0.0000000999  0.000003  0.000008  0.000022  0.000000
 14  -2308.45364287  -0.0000000040  0.000003  0.000003  0.000011  0.000000
                  ***Gradient check signals convergence***
              ***Rediagonalizing the Fockian in SOSCF/NRSCF***

               *****************************************************
               *                     SUCCESS                       *
               *           SCF CONVERGED AFTER  15 CYCLES          *
               *****************************************************

Old exchange energy                            =   -111.716198652 Eh
New exchange energy                            =   -111.716212581 Eh
Exchange energy change after final integration =     -0.000013929 Eh
Total energy after final integration           =  -2308.453656821 Eh
Final COS-X integration done in                =    82.079 sec

----------------
TOTAL SCF ENERGY
----------------

Total Energy       :        -2308.45365682 Eh          -62816.21752 eV

Components:
Nuclear Repulsion  :         4575.55107339 Eh          124507.07452 eV
Electronic Energy  :        -6884.00473021 Eh         -187323.29204 eV
One Electron Energy:       -12309.97138011 Eh         -334971.35087 eV
Two Electron Energy:         5425.96664990 Eh          147648.05883 eV
Max COSX asymmetry :            0.00000372 Eh               0.00010 eV

Virial components:
Potential Energy   :        -4601.43316412 Eh         -125211.36202 eV
Kinetic Energy     :         2292.97950730 Eh           62395.14450 eV
Virial Ratio       :            2.00674849


DFT components:
N(Alpha)           :      142.999990611570 electrons
N(Beta)            :      142.999990611570 electrons
N(Total)           :      285.999981223141 electrons
E(X)               :     -148.804889331969 Eh       
E(C)               :      -13.013201802923 Eh       
E(XC)              :     -161.818091134892 Eh       
DFET-embed. en.    :        0.000000000000 Eh       

---------------
SCF CONVERGENCE
---------------

  Last Energy change         ...   -2.2362e-08  Tolerance :   1.0000e-08
  Last MAX-Density change    ...    3.3307e-15  Tolerance :   1.0000e-07
  Last RMS-Density change    ...    3.4147e-17  Tolerance :   5.0000e-09
  Last Orbital Gradient      ...    5.6232e-07  Tolerance :   1.0000e-05
  Last Orbital Rotation      ...    1.9920e-06  Tolerance :   1.0000e-05

             **** THE GBW FILE WAS UPDATED (pbeh-3c.gbw) ****
             **** DENSITY pbeh-3c.scfp WAS UPDATED ****
             **** ENERGY FILE WAS UPDATED (pbeh-3c.en.tmp) ****
             **** THE GBW FILE WAS UPDATED (pbeh-3c.gbw) ****
             **** DENSITY pbeh-3c.scfp WAS UPDATED ****
----------------
ORBITAL ENERGIES
----------------

  NO   OCC          E(Eh)            E(eV) 
   0   2.0000     -77.723274     -2114.9578 
   1   2.0000     -19.453222      -529.3491 
   2   2.0000     -19.446447      -529.1647 
   3   2.0000     -19.442988      -529.0706 
   4   2.0000     -19.428720      -528.6824 
   5   2.0000     -19.423661      -528.5447 
   6   2.0000     -19.412642      -528.2448 
   7   2.0000     -19.404360      -528.0195 
   8   2.0000     -19.400729      -527.9207 
   9   2.0000     -19.400260      -527.9079 
  10   2.0000     -19.398538      -527.8611 
  11   2.0000     -19.394397      -527.7484 
  12   2.0000     -19.381620      -527.4007 
  13   2.0000     -19.287176      -524.8307 
  14   2.0000     -19.272684      -524.4364 
  15   2.0000     -14.637599      -398.3093 
  16   2.0000     -14.631825      -398.1522 
  17   2.0000     -14.624598      -397.9556 
  18   2.0000     -14.614363      -397.6770 
  19   2.0000     -10.530886      -286.5600 
  20   2.0000     -10.524067      -286.3744 
  21   2.0000     -10.499154      -285.6965 
  22   2.0000     -10.480177      -285.1801 
  23   2.0000     -10.476009      -285.0667 
  24   2.0000     -10.456306      -284.5306 
  25   2.0000     -10.449371      -284.3419 
  26   2.0000     -10.433307      -283.9047 
  27   2.0000     -10.427939      -283.7587 
  28   2.0000     -10.427253      -283.7400 
  29   2.0000     -10.426169      -283.7105 
  30   2.0000     -10.422714      -283.6165 
  31   2.0000     -10.418484      -283.5013 
  32   2.0000     -10.417424      -283.4725 
  33   2.0000     -10.412032      -283.3258 
  34   2.0000     -10.401456      -283.0380 
  35   2.0000     -10.387375      -282.6548 
  36   2.0000     -10.361506      -281.9509 
  37   2.0000      -6.767505      -184.1532 
  38   2.0000      -4.862637      -132.3191 
  39   2.0000      -4.861381      -132.2849 
  40   2.0000      -4.858954      -132.2189 
  41   2.0000      -1.116104       -30.3707 
  42   2.0000      -1.115450       -30.3529 
  43   2.0000      -1.100219       -29.9385 
  44   2.0000      -1.087271       -29.5862 
  45   2.0000      -1.081492       -29.4289 
  46   2.0000      -1.073524       -29.2121 
  47   2.0000      -1.067192       -29.0398 
  48   2.0000      -1.056734       -28.7552 
  49   2.0000      -1.055814       -28.7302 
  50   2.0000      -1.049188       -28.5498 
  51   2.0000      -1.042076       -28.3563 
  52   2.0000      -1.010571       -27.4990 
  53   2.0000      -1.003463       -27.3056 
  54   2.0000      -0.996136       -27.1062 
  55   2.0000      -0.957018       -26.0418 
  56   2.0000      -0.946564       -25.7573 
  57   2.0000      -0.912836       -24.8395 
  58   2.0000      -0.869158       -23.6510 
  59   2.0000      -0.823042       -22.3961 
  60   2.0000      -0.807814       -21.9817 
  61   2.0000      -0.798991       -21.7417 
  62   2.0000      -0.788037       -21.4436 
  63   2.0000      -0.769569       -20.9410 
  64   2.0000      -0.767644       -20.8886 
  65   2.0000      -0.699254       -19.0277 
  66   2.0000      -0.698134       -18.9972 
  67   2.0000      -0.690828       -18.7984 
  68   2.0000      -0.684880       -18.6365 
  69   2.0000      -0.649012       -17.6605 
  70   2.0000      -0.644037       -17.5251 
  71   2.0000      -0.614746       -16.7281 
  72   2.0000      -0.611934       -16.6516 
  73   2.0000      -0.592957       -16.1352 
  74   2.0000      -0.585967       -15.9450 
  75   2.0000      -0.563037       -15.3210 
  76   2.0000      -0.561981       -15.2923 
  77   2.0000      -0.553743       -15.0681 
  78   2.0000      -0.543885       -14.7999 
  79   2.0000      -0.538679       -14.6582 
  80   2.0000      -0.529422       -14.4063 
  81   2.0000      -0.520868       -14.1735 
  82   2.0000      -0.512310       -13.9407 
  83   2.0000      -0.508149       -13.8274 
  84   2.0000      -0.500917       -13.6307 
  85   2.0000      -0.497862       -13.5475 
  86   2.0000      -0.484728       -13.1901 
  87   2.0000      -0.475307       -12.9338 
  88   2.0000      -0.472514       -12.8578 
  89   2.0000      -0.467088       -12.7101 
  90   2.0000      -0.460373       -12.5274 
  91   2.0000      -0.455820       -12.4035 
  92   2.0000      -0.449281       -12.2256 
  93   2.0000      -0.442934       -12.0528 
  94   2.0000      -0.440208       -11.9787 
  95   2.0000      -0.438798       -11.9403 
  96   2.0000      -0.430701       -11.7200 
  97   2.0000      -0.426577       -11.6077 
  98   2.0000      -0.422974       -11.5097 
  99   2.0000      -0.412338       -11.2203 
 100   2.0000      -0.410858       -11.1800 
 101   2.0000      -0.409732       -11.1494 
 102   2.0000      -0.404953       -11.0193 
 103   2.0000      -0.399994       -10.8844 
 104   2.0000      -0.396252       -10.7826 
 105   2.0000      -0.391131       -10.6432 
 106   2.0000      -0.387296       -10.5389 
 107   2.0000      -0.382105       -10.3976 
 108   2.0000      -0.380582       -10.3562 
 109   2.0000      -0.377465       -10.2714 
 110   2.0000      -0.367096        -9.9892 
 111   2.0000      -0.365081        -9.9344 
 112   2.0000      -0.354594        -9.6490 
 113   2.0000      -0.346598        -9.4314 
 114   2.0000      -0.343377        -9.3438 
 115   2.0000      -0.342710        -9.3256 
 116   2.0000      -0.338532        -9.2119 
 117   2.0000      -0.328857        -8.9487 
 118   2.0000      -0.325490        -8.8570 
 119   2.0000      -0.311865        -8.4863 
 120   2.0000      -0.304251        -8.2791 
 121   2.0000      -0.296611        -8.0712 
 122   2.0000      -0.286106        -7.7853 
 123   2.0000      -0.279510        -7.6058 
 124   2.0000      -0.278127        -7.5682 
 125   2.0000      -0.277602        -7.5539 
 126   2.0000      -0.267664        -7.2835 
 127   2.0000      -0.266672        -7.2565 
 128   2.0000      -0.264433        -7.1956 
 129   2.0000      -0.263800        -7.1784 
 130   2.0000      -0.261021        -7.1027 
 131   2.0000      -0.255370        -6.9490 
 132   2.0000      -0.250893        -6.8271 
 133   2.0000      -0.246153        -6.6982 
 134   2.0000      -0.243158        -6.6167 
 135   2.0000      -0.237059        -6.4507 
 136   2.0000      -0.234588        -6.3835 
 137   2.0000      -0.211126        -5.7450 
 138   2.0000      -0.209146        -5.6911 
 139   2.0000      -0.196353        -5.3430 
 140   2.0000      -0.194527        -5.2934 
 141   2.0000      -0.172058        -4.6819 
 142   2.0000      -0.158448        -4.3116 
 143   0.0000       0.054312         1.4779 
 144   0.0000       0.076877         2.0919 
 145   0.0000       0.112760         3.0684 
 146   0.0000       0.120459         3.2778 
 147   0.0000       0.157206         4.2778 
 148   0.0000       0.166738         4.5372 
 149   0.0000       0.194647         5.2966 
 150   0.0000       0.203603         5.5403 
 151   0.0000       0.211141         5.7454 
 152   0.0000       0.213836         5.8188 
 153   0.0000       0.217856         5.9282 
 154   0.0000       0.226484         6.1630 
 155   0.0000       0.230859         6.2820 
 156   0.0000       0.236284         6.4296 
 157   0.0000       0.237411         6.4603 
 158   0.0000       0.245515         6.6808 
 159   0.0000       0.246575         6.7096 
 160   0.0000       0.249925         6.8008 
 161   0.0000       0.254731         6.9316 
 162   0.0000       0.261227         7.1084 
 163   0.0000       0.262670         7.1476 
 164   0.0000       0.268497         7.3062 
 165   0.0000       0.275254         7.4900 
 166   0.0000       0.278522         7.5790 
 167   0.0000       0.282519         7.6877 
 168   0.0000       0.285816         7.7774 
 169   0.0000       0.287003         7.8097 
 170   0.0000       0.293518         7.9870 
 171   0.0000       0.296953         8.0805 
 172   0.0000       0.300313         8.1719 
 173   0.0000       0.306344         8.3361 
 174   0.0000       0.311046         8.4640 
 175   0.0000       0.313355         8.5268 
 176   0.0000       0.317268         8.6333 
 177   0.0000       0.319906         8.7051 
 178   0.0000       0.322674         8.7804 
 179   0.0000       0.329772         8.9735 
 180   0.0000       0.333898         9.0858 
 181   0.0000       0.336666         9.1612 
 182   0.0000       0.338341         9.2067 
 183   0.0000       0.339957         9.2507 
 184   0.0000       0.350095         9.5266 
 185   0.0000       0.357350         9.7240 
 186   0.0000       0.361686         9.8420 
 187   0.0000       0.366638         9.9767 
 188   0.0000       0.368045        10.0150 
 189   0.0000       0.374794        10.1987 
 190   0.0000       0.384149        10.4532 
 191   0.0000       0.385434        10.4882 
 192   0.0000       0.392077        10.6690 
 193   0.0000       0.397358        10.8127 
 194   0.0000       0.404774        11.0145 
 195   0.0000       0.408342        11.1115 
 196   0.0000       0.412799        11.2328 
 197   0.0000       0.420153        11.4329 
 198   0.0000       0.420879        11.4527 
 199   0.0000       0.436808        11.8861 
 200   0.0000       0.443872        12.0784 
 201   0.0000       0.449312        12.2264 
 202   0.0000       0.450104        12.2480 
 203   0.0000       0.469831        12.7847 
 204   0.0000       0.475281        12.9331 
 205   0.0000       0.479169        13.0388 
 206   0.0000       0.489799        13.3281 
 207   0.0000       0.495679        13.4881 
 208   0.0000       0.502438        13.6720 
 209   0.0000       0.539549        14.6819 
 210   0.0000       0.547773        14.9057 
 211   0.0000       0.557055        15.1582 
 212   0.0000       0.558622        15.2009 
 213   0.0000       0.566699        15.4207 
 214   0.0000       0.582388        15.8476 
 215   0.0000       0.595361        16.2006 
 216   0.0000       0.600124        16.3302 
 217   0.0000       0.606827        16.5126 
 218   0.0000       0.614285        16.7155 
 219   0.0000       0.619727        16.8636 
 220   0.0000       0.621756        16.9188 
 221   0.0000       0.627283        17.0692 
 222   0.0000       0.631577        17.1861 
 223   0.0000       0.634853        17.2752 
 224   0.0000       0.638259        17.3679 
 225   0.0000       0.645205        17.5569 
 226   0.0000       0.648098        17.6356 
 227   0.0000       0.649883        17.6842 
 228   0.0000       0.653452        17.7813 
 229   0.0000       0.657923        17.9030 
 230   0.0000       0.660532        17.9740 
 231   0.0000       0.663036        18.0421 
 232   0.0000       0.672750        18.3065 
 233   0.0000       0.685714        18.6592 
 234   0.0000       0.689252        18.7555 
 235   0.0000       0.694603        18.9011 
 236   0.0000       0.696731        18.9590 
 237   0.0000       0.701915        19.1001 
 238   0.0000       0.710154        19.3243 
 239   0.0000       0.715193        19.4614 
 240   0.0000       0.717411        19.5217 
 241   0.0000       0.722850        19.6697 
 242   0.0000       0.728052        19.8113 
 243   0.0000       0.730721        19.8839 
 244   0.0000       0.733924        19.9711 
 245   0.0000       0.744614        20.2620 
 246   0.0000       0.754227        20.5236 
 247   0.0000       0.756538        20.5864 
 248   0.0000       0.762499        20.7486 
 249   0.0000       0.772719        21.0268 
 250   0.0000       0.778000        21.1705 
 251   0.0000       0.783211        21.3123 
 252   0.0000       0.788473        21.4554 
 253   0.0000       0.792492        21.5648 
 254   0.0000       0.794244        21.6125 
 255   0.0000       0.799864        21.7654 
 256   0.0000       0.809975        22.0405 
 257   0.0000       0.811755        22.0890 
 258   0.0000       0.821184        22.3455 
 259   0.0000       0.823040        22.3961 
 260   0.0000       0.836425        22.7603 
 261   0.0000       0.857556        23.3353 
 262   0.0000       0.858490        23.3607 
 263   0.0000       0.865028        23.5386 
 264   0.0000       0.868797        23.6412 
 265   0.0000       0.873070        23.7574 
 266   0.0000       0.882370        24.0105 
 267   0.0000       0.911432        24.8013 
 268   0.0000       0.912866        24.8404 
 269   0.0000       0.940006        25.5789 
 270   0.0000       0.956037        26.0151 
 271   0.0000       0.958909        26.0932 
 272   0.0000       0.960958        26.1490 
 273   0.0000       0.973712        26.4961 
 274   0.0000       0.975118        26.5343 
 275   0.0000       0.981097        26.6970 
 276   0.0000       0.983311        26.7572 
 277   0.0000       0.990456        26.9517 
 278   0.0000       0.992914        27.0186 
 279   0.0000       0.996462        27.1151 
 280   0.0000       1.007025        27.4025 
 281   0.0000       1.015515        27.6336 
 282   0.0000       1.023064        27.8390 
 283   0.0000       1.027394        27.9568 
 284   0.0000       1.034293        28.1445 
 285   0.0000       1.040697        28.3188 
 286   0.0000       1.043956        28.4075 
 287   0.0000       1.046214        28.4689 
 288   0.0000       1.054262        28.6879 
 289   0.0000       1.060190        28.8492 
 290   0.0000       1.062091        28.9010 
 291   0.0000       1.066488        29.0206 
 292   0.0000       1.072324        29.1794 
 293   0.0000       1.078447        29.3460 
 294   0.0000       1.080349        29.3978 
 295   0.0000       1.084420        29.5086 
 296   0.0000       1.086243        29.5582 
 297   0.0000       1.090753        29.6809 
 298   0.0000       1.091476        29.7006 
 299   0.0000       1.102953        30.0129 
 300   0.0000       1.107248        30.1298 
 301   0.0000       1.111148        30.2359 
 302   0.0000       1.112747        30.2794 
 303   0.0000       1.119647        30.4672 
 304   0.0000       1.122729        30.5510 
 305   0.0000       1.129122        30.7250 
 306   0.0000       1.139892        31.0180 
 307   0.0000       1.146564        31.1996 
 308   0.0000       1.149862        31.2893 
 309   0.0000       1.156165        31.4609 
 310   0.0000       1.170396        31.8481 
 311   0.0000       1.180923        32.1345 
 312   0.0000       1.187406        32.3110 
 313   0.0000       1.190170        32.3862 
 314   0.0000       1.193915        32.4881 
 315   0.0000       1.201037        32.6819 
 316   0.0000       1.208821        32.8937 
 317   0.0000       1.211168        32.9576 
 318   0.0000       1.218852        33.1667 
 319   0.0000       1.224086        33.3091 
 320   0.0000       1.228516        33.4296 
 321   0.0000       1.232466        33.5371 
 322   0.0000       1.244572        33.8665 
 323   0.0000       1.247472        33.9455 
 324   0.0000       1.251924        34.0666 
 325   0.0000       1.260249        34.2931 
 326   0.0000       1.262669        34.3590 
 327   0.0000       1.269318        34.5399 
 328   0.0000       1.282429        34.8967 
 329   0.0000       1.288401        35.0592 
 330   0.0000       1.292921        35.1822 
 331   0.0000       1.295340        35.2480 
 332   0.0000       1.302496        35.4427 
 333   0.0000       1.306893        35.5624 
 334   0.0000       1.308348        35.6020 
 335   0.0000       1.319237        35.8983 
 336   0.0000       1.325288        36.0629 
 337   0.0000       1.333816        36.2950 
 338   0.0000       1.343800        36.5667 
 339   0.0000       1.354737        36.8643 
 340   0.0000       1.357037        36.9268 
 341   0.0000       1.363273        37.0965 
 342   0.0000       1.373687        37.3799 
 343   0.0000       1.378682        37.5159 
 344   0.0000       1.385211        37.6935 
 345   0.0000       1.394327        37.9416 
 346   0.0000       1.399829        38.0913 
 347   0.0000       1.408454        38.3260 
 348   0.0000       1.424292        38.7570 
 349   0.0000       1.433959        39.0200 
 350   0.0000       1.446825        39.3701 
 351   0.0000       1.451926        39.5089 
 352   0.0000       1.462147        39.7870 
 353   0.0000       1.464236        39.8439 
 354   0.0000       1.470857        40.0241 
 355   0.0000       1.478429        40.2301 
 356   0.0000       1.489639        40.5351 
 357   0.0000       1.491265        40.5794 
 358   0.0000       1.502495        40.8850 
 359   0.0000       1.506211        40.9861 
 360   0.0000       1.508714        41.0542 
 361   0.0000       1.516737        41.2725 
 362   0.0000       1.521211        41.3942 
 363   0.0000       1.526206        41.5302 
 364   0.0000       1.542485        41.9731 
 365   0.0000       1.544242        42.0210 
 366   0.0000       1.550424        42.1892 
 367   0.0000       1.558398        42.4062 
 368   0.0000       1.566170        42.6177 
 369   0.0000       1.574949        42.8565 
 370   0.0000       1.578741        42.9597 
 371   0.0000       1.590878        43.2900 
 372   0.0000       1.594880        43.3989 
 373   0.0000       1.600867        43.5618 
 374   0.0000       1.609671        43.8014 
 375   0.0000       1.622628        44.1540 
 376   0.0000       1.623943        44.1897 
 377   0.0000       1.636853        44.5410 
 378   0.0000       1.642646        44.6987 
 379   0.0000       1.662968        45.2516 
 380   0.0000       1.674883        45.5759 
 381   0.0000       1.686453        45.8907 
 382   0.0000       1.692534        46.0562 
 383   0.0000       1.707510        46.4637 
 384   0.0000       1.724394        46.9232 
 385   0.0000       1.738192        47.2986 
 386   0.0000       1.751872        47.6709 
 387   0.0000       1.762062        47.9481 
 388   0.0000       1.765797        48.0498 
 389   0.0000       1.766744        48.0755 
 390   0.0000       1.778068        48.3837 
 391   0.0000       1.794390        48.8278 
 392   0.0000       1.806946        49.1695 
 393   0.0000       1.823478        49.6193 
 394   0.0000       1.835402        49.9438 
 395   0.0000       1.835584        49.9488 
 396   0.0000       1.851327        50.3772 
 397   0.0000       1.856795        50.5260 
 398   0.0000       1.864997        50.7491 
 399   0.0000       1.872397        50.9505 
 400   0.0000       1.885488        51.3067 
 401   0.0000       1.890555        51.4446 
 402   0.0000       1.901775        51.7499 
 403   0.0000       1.903919        51.8083 
 404   0.0000       1.915180        52.1147 
 405   0.0000       1.917566        52.1796 
 406   0.0000       1.924214        52.3605 
 407   0.0000       1.926556        52.4243 
 408   0.0000       1.932892        52.5967 
 409   0.0000       1.942898        52.8689 
 410   0.0000       1.945481        52.9392 
 411   0.0000       1.950443        53.0742 
 412   0.0000       1.952262        53.1238 
 413   0.0000       1.959596        53.3233 
 414   0.0000       1.964012        53.4435 
 415   0.0000       1.966509        53.5114 
 416   0.0000       1.971424        53.6452 
 417   0.0000       1.979429        53.8630 
 418   0.0000       1.985909        54.0393 
 419   0.0000       1.989494        54.1369 
 420   0.0000       1.998660        54.3863 
 421   0.0000       2.005323        54.5676 
 422   0.0000       2.009079        54.6698 
 423   0.0000       2.020276        54.9745 
 424   0.0000       2.028516        55.1987 
 425   0.0000       2.035114        55.3783 
 426   0.0000       2.035896        55.3996 
 427   0.0000       2.044412        55.6313 
 428   0.0000       2.048511        55.7428 
 429   0.0000       2.051642        55.8280 
 430   0.0000       2.057907        55.9985 
 431   0.0000       2.063880        56.1610 
 432   0.0000       2.068294        56.2812 
 433   0.0000       2.074881        56.4604 
 434   0.0000       2.077037        56.5191 
 435   0.0000       2.084839        56.7314 
 436   0.0000       2.090038        56.8728 
 437   0.0000       2.096335        57.0442 
 438   0.0000       2.098802        57.1113 
 439   0.0000       2.103420        57.2370 
 440   0.0000       2.108459        57.3741 
 441   0.0000       2.110194        57.4213 
 442   0.0000       2.113282        57.5053 
 443   0.0000       2.121476        57.7283 
 444   0.0000       2.129416        57.9444 
 445   0.0000       2.133876        58.0657 
 446   0.0000       2.137101        58.1535 
 447   0.0000       2.146766        58.4165 
 448   0.0000       2.150944        58.5302 
 449   0.0000       2.155241        58.6471 
 450   0.0000       2.162916        58.8559 
 451   0.0000       2.166279        58.9474 
 452   0.0000       2.172797        59.1248 
 453   0.0000       2.178217        59.2723 
 454   0.0000       2.185207        59.4625 
 455   0.0000       2.196044        59.7574 
 456   0.0000       2.198365        59.8205 
 457   0.0000       2.210800        60.1589 
 458   0.0000       2.215898        60.2977 
 459   0.0000       2.222737        60.4837 
 460   0.0000       2.235123        60.8208 
 461   0.0000       2.243925        61.0603 
 462   0.0000       2.258950        61.4691 
 463   0.0000       2.264320        61.6153 
 464   0.0000       2.266911        61.6858 
 465   0.0000       2.276181        61.9380 
 466   0.0000       2.282439        62.1083 
 467   0.0000       2.287840        62.2553 
 468   0.0000       2.296178        62.4822 
 469   0.0000       2.302823        62.6630 
 470   0.0000       2.314638        62.9845 
 471   0.0000       2.315720        63.0139 
 472   0.0000       2.320425        63.1420 
 473   0.0000       2.324759        63.2599 
 474   0.0000       2.334682        63.5299 
 475   0.0000       2.346048        63.8392 
 476   0.0000       2.347127        63.8686 
 477   0.0000       2.359505        64.2054 
 478   0.0000       2.374278        64.6074 
 479   0.0000       2.380294        64.7711 
 480   0.0000       2.386638        64.9437 
 481   0.0000       2.395129        65.1748 
 482   0.0000       2.410266        65.5867 
 483   0.0000       2.415489        65.7288 
 484   0.0000       2.417927        65.7951 
 485   0.0000       2.434195        66.2378 
 486   0.0000       2.439387        66.3791 
 487   0.0000       2.447505        66.6000 
 488   0.0000       2.452215        66.7282 
 489   0.0000       2.456176        66.8359 
 490   0.0000       2.467305        67.1388 
 491   0.0000       2.470281        67.2198 
 492   0.0000       2.484575        67.6087 
 493   0.0000       2.497386        67.9573 
 494   0.0000       2.501778        68.0768 
 495   0.0000       2.507483        68.2321 
 496   0.0000       2.537194        69.0406 
 497   0.0000       2.541273        69.1516 
 498   0.0000       2.553060        69.4723 
 499   0.0000       2.561006        69.6885 
 500   0.0000       2.563508        69.7566 
 501   0.0000       2.572267        69.9950 
 502   0.0000       2.592462        70.5445 
 503   0.0000       2.596885        70.6648 
 504   0.0000       2.610804        71.0436 
 505   0.0000       2.620383        71.3042 
 506   0.0000       2.628400        71.5224 
 507   0.0000       2.642314        71.9010 
 508   0.0000       2.650827        72.1327 
 509   0.0000       2.661216        72.4154 
 510   0.0000       2.671860        72.7050 
 511   0.0000       2.679545        72.9141 
 512   0.0000       2.687854        73.1402 
 513   0.0000       2.705527        73.6211 
 514   0.0000       2.712382        73.8077 
 515   0.0000       2.728074        74.2347 
 516   0.0000       2.732513        74.3555 
 517   0.0000       2.735110        74.4261 
 518   0.0000       2.737850        74.5007 
 519   0.0000       2.740872        74.5829 
 520   0.0000       2.751557        74.8737 
 521   0.0000       2.753491        74.9263 
 522   0.0000       2.771293        75.4107 
 523   0.0000       2.778039        75.5943 
 524   0.0000       2.789727        75.9123 
 525   0.0000       2.798860        76.1609 
 526   0.0000       2.802486        76.2595 
 527   0.0000       2.810593        76.4801 
 528   0.0000       2.830349        77.0177 
 529   0.0000       2.838023        77.2265 
 530   0.0000       2.859772        77.8184 
 531   0.0000       2.870852        78.1199 
 532   0.0000       2.873703        78.1974 
 533   0.0000       2.884683        78.4962 
 534   0.0000       2.891929        78.6934 
 535   0.0000       2.904019        79.0224 
 536   0.0000       2.906787        79.0977 
 537   0.0000       2.913425        79.2783 
 538   0.0000       2.925455        79.6057 
 539   0.0000       2.945321        80.1463 
 540   0.0000       2.964273        80.6620 
 541   0.0000       2.977283        81.0160 
 542   0.0000       2.989834        81.3575 
 543   0.0000       2.991330        81.3982 
 544   0.0000       2.997971        81.5789 
 545   0.0000       3.008252        81.8587 
 546   0.0000       3.014917        82.0401 
 547   0.0000       3.018010        82.1242 
 548   0.0000       3.041615        82.7665 
 549   0.0000       3.061027        83.2948 
 550   0.0000       3.066486        83.4433 
 551   0.0000       3.078254        83.7635 
 552   0.0000       3.087832        84.0242 
 553   0.0000       3.092863        84.1611 
 554   0.0000       3.107861        84.5692 
 555   0.0000       3.118950        84.8709 
 556   0.0000       3.138728        85.4091 
 557   0.0000       3.165342        86.1333 
 558   0.0000       3.165604        86.1405 
 559   0.0000       3.172426        86.3261 
 560   0.0000       3.194520        86.9273 
 561   0.0000       3.197643        87.0123 
 562   0.0000       3.389270        92.2267 
 563   0.0000       3.405100        92.6575 
 564   0.0000       3.572997        97.2262 
 565   0.0000       3.588008        97.6347 
 566   0.0000      13.538475       368.4006 
 567   0.0000      13.543282       368.5314 
 568   0.0000      13.662686       371.7806 
 569   0.0000      13.677534       372.1846 
 570   0.0000      13.870521       377.4361 
 571   0.0000      13.900549       378.2532 
 572   0.0000      14.012528       381.3003 
 573   0.0000      14.024600       381.6288 
 574   0.0000      14.033683       381.8759 
 575   0.0000      14.033883       381.8814 
 576   0.0000      14.117336       384.1523 
 577   0.0000      14.126987       384.4148 
 578   0.0000      14.141506       384.8100 
 579   0.0000      14.185941       386.0191 
 580   0.0000      14.236671       387.3995 
 581   0.0000      14.251724       387.8091 
 582   0.0000      14.307229       389.3195 
 583   0.0000      14.332857       390.0169 
 584   0.0000      19.383376       527.4485 
 585   0.0000      19.387042       527.5482 
 586   0.0000      19.475322       529.9504 
 587   0.0000      19.510590       530.9102 
 588   0.0000      25.560337       695.5321 
 589   0.0000      25.675204       698.6578 
 590   0.0000      25.717984       699.8219 
 591   0.0000      25.739566       700.4092 
 592   0.0000      25.755559       700.8444 
 593   0.0000      25.799899       702.0510 
 594   0.0000      25.817056       702.5178 
 595   0.0000      25.829476       702.8558 
 596   0.0000      25.835862       703.0295 
 597   0.0000      25.850100       703.4170 
 598   0.0000      25.854577       703.5388 
 599   0.0000      25.883438       704.3241 
 600   0.0000      25.899474       704.7605 
 601   0.0000      25.974710       706.8078 

                    ********************************
                    * MULLIKEN POPULATION ANALYSIS *
                    ********************************

-----------------------
MULLIKEN ATOMIC CHARGES
-----------------------
   0 H :    0.422209
   1 O :   -0.645535
   2 C :   -0.187733
   3 H :    0.202035
   4 H :    0.226101
   5 C :    0.001424
   6 H :    0.278353
   7 O :   -0.492012
   8 C :    0.189928
   9 H :    0.278024
  10 N :   -0.569740
  11 C :    0.093380
  12 H :    0.315382
  13 C :   -0.488164
  14 H :    0.241797
  15 C :    0.563454
  16 O :   -0.431973
  17 N :   -0.737068
  18 H :    0.388455
  19 C :    0.729114
  20 O :   -0.440063
  21 C :   -0.030703
  22 H :    0.265231
  23 C :   -0.021520
  24 H :    0.243035
  25 O :   -0.638620
  26 H :    0.436184
  27 O :   -0.658154
  28 P :    1.371824
  29 O :   -0.699432
  30 O :   -0.759898
  31 O :   -0.607129
  32 C :   -0.188311
  33 H :    0.237179
  34 H :    0.210493
  35 C :    0.041234
  36 H :    0.224355
  37 O :   -0.493962
  38 C :    0.224985
  39 H :    0.266637
  40 N :   -0.587703
  41 C :    0.081912
  42 H :    0.336738
  43 C :   -0.466439
  44 H :    0.281805
  45 C :    0.553431
  46 O :   -0.433938
  47 N :   -0.729851
  48 H :    0.383750
  49 C :    0.711738
  50 O :   -0.459305
  51 C :   -0.075747
  52 H :    0.268907
  53 C :   -0.040549
  54 H :    0.247895
  55 O :   -0.643883
  56 H :    0.421695
  57 O :   -0.638826
  58 H :    0.427578
Sum of atomic charges:   -1.0000000

--------------------------------
MULLIKEN REDUCED ORBITAL CHARGES
--------------------------------
  0 H s       :     0.577791  s :     0.577791
  1 O s       :     3.827520  s :     3.827520
      pz      :     1.286944  p :     4.790244
      px      :     1.708505
      py      :     1.794795
      dz2     :     0.002950  d :     0.027772
      dxz     :     0.010246
      dyz     :     0.006984
      dx2y2   :     0.002994
      dxy     :     0.004597
  2 C s       :     3.276542  s :     3.276542
      pz      :     0.777945  p :     2.846290
      px      :     0.986158
      py      :     1.082187
      dz2     :     0.015740  d :     0.064901
      dxz     :     0.014335
      dyz     :     0.012962
      dx2y2   :     0.017451
      dxy     :     0.004412
  3 H s       :     0.797965  s :     0.797965
  4 H s       :     0.773899  s :     0.773899
  5 C s       :     3.240957  s :     3.240957
      pz      :     1.052490  p :     2.691003
      px      :     0.960429
      py      :     0.678084
      dz2     :     0.010889  d :     0.066617
      dxz     :     0.008747
      dyz     :     0.016893
      dx2y2   :     0.018790
      dxy     :     0.011298
  6 H s       :     0.721647  s :     0.721647
  7 O s       :     3.817117  s :     3.817117
      pz      :     1.844330  p :     4.645905
      px      :     1.529405
      py      :     1.272170
      dz2     :     0.004308  d :     0.028990
      dxz     :     0.003486
      dyz     :     0.003355
      dx2y2   :     0.008312
      dxy     :     0.009528
  8 C s       :     3.157212  s :     3.157212
      pz      :     0.974336  p :     2.567519
      px      :     0.773465
      py      :     0.819718
      dz2     :     0.011600  d :     0.085341
      dxz     :     0.012476
      dyz     :     0.024046
      dx2y2   :     0.013907
      dxy     :     0.023311
  9 H s       :     0.721976  s :     0.721976
 10 N s       :     3.564363  s :     3.564363
      pz      :     1.195215  p :     3.964751
      px      :     1.600251
      py      :     1.169284
      dz2     :     0.011966  d :     0.040627
      dxz     :     0.005555
      dyz     :     0.011599
      dx2y2   :     0.006347
      dxy     :     0.005160
 11 C s       :     3.148004  s :     3.148004
      pz      :     0.779046  p :     2.700540
      px      :     0.873652
      py      :     1.047842
      dz2     :     0.018469  d :     0.058077
      dxz     :     0.014943
      dyz     :     0.013419
      dx2y2   :     0.007751
      dxy     :     0.003495
[...]
      dxz     :     0.013295
      dyz     :     0.015663
      dx2y2   :     0.001551
      dxy     :     0.001903
 21 C s       :     2.881669  s :     2.881669
      pz      :     0.859298  p :     2.990753
      px      :     1.037323
      py      :     1.094132
      dz2     :     0.044215  d :     0.156566
      dxz     :     0.032374
      dyz     :     0.033617
      dx2y2   :     0.032217
      dxy     :     0.014143
 22 H s       :     0.859972  s :     0.859972
 23 C s       :     2.877666  s :     2.877666
      pz      :     1.076550  p :     3.003662
      px      :     0.899583
      py      :     1.027529
      dz2     :     0.035646  d :     0.159978
      dxz     :     0.021461
      dyz     :     0.016221
      dx2y2   :     0.034775
      dxy     :     0.051875
 24 H s       :     0.868130  s :     0.868130
 25 O s       :     3.521022  s :     3.521022
      pz      :     1.420476  p :     4.818703
      px      :     1.557798
      py      :     1.840430
      dz2     :     0.020350  d :     0.050963
      dxz     :     0.007271
      dyz     :     0.004115
      dx2y2   :     0.009502
      dxy     :     0.009725
 26 H s       :     0.682856  s :     0.682856
 27 O s       :     3.490229  s :     3.490229
      pz      :     1.373626  p :     4.821005
      px      :     1.782929
      py      :     1.664450
      dz2     :     0.014963  d :     0.048439
      dxz     :     0.008145
      dyz     :     0.015565
      dx2y2   :     0.006347
      dxy     :     0.003419
 28 P s       :     4.832773  s :     4.832773
      pz      :     2.777130  p :     8.260020
      px      :     2.726940
      py      :     2.755951
      dz2     :     0.220563  d :     1.103240
      dxz     :     0.192833
      dyz     :     0.289476
      dx2y2   :     0.251900
      dxy     :     0.148468
 29 O s       :     3.606394  s :     3.606394
      pz      :     1.577237  p :     4.946933
      px      :     1.660171
      py      :     1.709526
      dz2     :     0.011648  d :     0.035783
      dxz     :     0.012776
      dyz     :     0.006409
      dx2y2   :     0.002407
      dxy     :     0.002543
 30 O s       :     3.610523  s :     3.610523
      pz      :     1.666817  p :     4.971395
      px      :     1.707913
      py      :     1.596665
      dz2     :     0.004692  d :     0.034820
      dxz     :     0.002797
      dyz     :     0.013178
      dx2y2   :     0.008057
      dxy     :     0.006097
 31 O s       :     3.494845  s :     3.494845
      pz      :     1.599049  p :     4.807591
      px      :     1.379420
      py      :     1.829122
      dz2     :     0.010598  d :     0.050214
      dxz     :     0.017600
      dyz     :     0.005329
      dx2y2   :     0.010835
      dxy     :     0.005853
 32 C s       :     2.913991  s :     2.913991
      pz      :     0.970202  p :     3.043678
      px      :     0.945654
      py      :     1.127822
      dz2     :     0.018387  d :     0.138911
      dxz     :     0.038928
      dyz     :     0.036490
      dx2y2   :     0.033904
      dxy     :     0.011201
 33 H s       :     0.867867  s :     0.867867
 34 H s       :     0.880096  s :     0.880096
 35 C s       :     2.883880  s :     2.883880
      pz      :     1.004846  p :     2.976349
      px      :     1.094096
      py      :     0.877407
      dz2     :     0.016162  d :     0.151521
      dxz     :     0.035410
      dyz     :     0.044986
      dx2y2   :     0.034356
      dxy     :     0.020606
 36 H s       :     0.872897  s :     0.872897
 37 O s       :     3.462609  s :     3.462609
      pz      :     1.402966  p :     4.699458
      px      :     1.712263
      py      :     1.584229
      dz2     :     0.012741  d :     0.065060
      dxz     :     0.014202
      dyz     :     0.018658
      dx2y2   :     0.010919
      dxy     :     0.008540
 38 C s       :     2.869893  s :     2.869893
      pz      :     0.807109  p :     2.851812
      px      :     0.967440
      py      :     1.077263
      dz2     :     0.048233  d :     0.184629
      dxz     :     0.055791
      dyz     :     0.025501
      dx2y2   :     0.022875
      dxy     :     0.032229
 39 H s       :     0.860905  s :     0.860905
 40 N s       :     3.075777  s :     3.075777
      pz      :     1.192244  p :     3.926489
      px      :     1.223120
      py      :     1.511125
      dz2     :     0.024200  d :     0.099188
      dxz     :     0.036613
      dyz     :     0.011733
      dx2y2   :     0.013207
      dxy     :     0.013434
 41 C s       :     2.888812  s :     2.888812
      pz      :     1.143404  p :     2.979093
      px      :     0.951559
      py      :     0.884129
      dz2     :     0.033389  d :     0.129300
      dxz     :     0.029492
      dyz     :     0.008898
      dx2y2   :     0.027432
      dxy     :     0.030088
 42 H s       :     0.820953  s :     0.820953
 43 C s       :     2.905393  s :     2.905393
      pz      :     1.045441  p :     3.257133
      px      :     1.100895
      py      :     1.110797
      dz2     :     0.028067  d :     0.081437
      dxz     :     0.028118
      dyz     :     0.009399
      dx2y2   :     0.009562
      dxy     :     0.006291
 44 H s       :     0.827449  s :     0.827449
 45 C s       :     2.820890  s :     2.820890
      pz      :     1.057459  p :     2.786083
      px      :     0.919780
      py      :     0.808844
      dz2     :     0.090312  d :     0.268743
      dxz     :     0.062266
      dyz     :     0.038757
      dx2y2   :     0.042220
      dxy     :     0.035188
 46 O s       :     3.531957  s :     3.531957
      pz      :     1.548794  p :     4.701106
      px      :     1.674023
      py      :     1.478289
      dz2     :     0.016160  d :     0.053242
      dxz     :     0.018545
      dyz     :     0.010090
      dx2y2   :     0.004250
      dxy     :     0.004197
 47 N s       :     3.118865  s :     3.118865
      pz      :     1.209156  p :     4.005258
      px      :     1.230203
      py      :     1.565899
      dz2     :     0.018973  d :     0.076522
      dxz     :     0.028859
      dyz     :     0.005553
      dx2y2   :     0.012668
      dxy     :     0.010469
 48 H s       :     0.720343  s :     0.720343
 49 C s       :     2.783861  s :     2.783861
      pz      :     0.929197  p :     2.749143
      px      :     0.987185
      py      :     0.832761
      dz2     :     0.052311  d :     0.313166
      dxz     :     0.127018
      dyz     :     0.037468
      dx2y2   :     0.043589
      dxy     :     0.052780
 50 O s       :     3.528400  s :     3.528400
      pz      :     1.763447  p :     4.714489
      px      :     1.450129
      py      :     1.500913
      dz2     :     0.007117  d :     0.054355
      dxz     :     0.011581
      dyz     :     0.001314
      dx2y2   :     0.018474
      dxy     :     0.015869
 51 C s       :     2.881873  s :     2.881873
      pz      :     1.025259  p :     3.007176
      px      :     1.058450
      py      :     0.923467
      dz2     :     0.013455  d :     0.156403
      dxz     :     0.035459
      dyz     :     0.049345
      dx2y2   :     0.027391
      dxy     :     0.030753
 52 H s       :     0.860496  s :     0.860496
 53 C s       :     2.890553  s :     2.890553
      pz      :     1.046983  p :     2.998614
      px      :     0.896575
      py      :     1.055056
      dz2     :     0.030850  d :     0.156864
      dxz     :     0.039233
      dyz     :     0.021197
      dx2y2   :     0.037459
      dxy     :     0.028124
 54 H s       :     0.874763  s :     0.874763
 55 O s       :     3.528944  s :     3.528944
      pz      :     1.643856  p :     4.821312
      px      :     1.555300
      py      :     1.622156
      dz2     :     0.005363  d :     0.050496
      dxz     :     0.009607
      dyz     :     0.011672
      dx2y2   :     0.017033
      dxy     :     0.006821
 56 H s       :     0.689283  s :     0.689283
 57 O s       :     3.528143  s :     3.528143
      pz      :     1.669954  p :     4.813579
      px      :     1.843304
      py      :     1.300321
      dz2     :     0.006284  d :     0.050831
      dxz     :     0.005943
      dyz     :     0.022571
      dx2y2   :     0.009371
      dxy     :     0.006661
 58 H s       :     0.679094  s :     0.679094


                      *****************************
                      * MAYER POPULATION ANALYSIS *
                      *****************************

  NA   - Mulliken gross atomic population
  ZA   - Total nuclear charge
  QA   - Mulliken gross atomic charge
  VA   - Mayer's total valence
  BVA  - Mayer's bonded valence
  FA   - Mayer's free valence

  ATOM       NA         ZA         QA         VA         BVA        FA
  0 H      0.5778     1.0000     0.4222     0.7973     0.7973    -0.0000
  1 O      8.6455     8.0000    -0.6455     1.8489     1.8489     0.0000
  2 C      6.1877     6.0000    -0.1877     3.6972     3.6972     0.0000
  3 H      0.7980     1.0000     0.2020     0.9051     0.9051     0.0000
  4 H      0.7739     1.0000     0.2261     0.8960     0.8960     0.0000
  5 C      5.9986     6.0000     0.0014     3.6422     3.6422     0.0000
  6 H      0.7216     1.0000     0.2784     0.8846     0.8846    -0.0000
  7 O      8.4920     8.0000    -0.4920     2.0009     2.0009    -0.0000
  8 C      5.8101     6.0000     0.1899     3.6328     3.6328     0.0000
  9 H      0.7220     1.0000     0.2780     0.9001     0.9001     0.0000
 10 N      7.5697     7.0000    -0.5697     3.1510     3.1510     0.0000
 11 C      5.9066     6.0000     0.0934     3.5571     3.5571     0.0000
 12 H      0.6846     1.0000     0.3154     0.8946     0.8946    -0.0000
 13 C      6.4882     6.0000    -0.4882     3.7434     3.7434     0.0000
 14 H      0.7582     1.0000     0.2418     0.9201     0.9201    -0.0000
 15 C      5.4365     6.0000     0.5635     4.0699     4.0699    -0.0000
 16 O      8.4320     8.0000    -0.4320     2.1922     2.1922    -0.0000
 17 N      7.7371     7.0000    -0.7371     3.0039     3.0039     0.0000
 18 H      0.6115     1.0000     0.3885     0.8404     0.8404     0.0000
 19 C      5.2709     6.0000     0.7291     4.0592     4.0592    -0.0000
 20 O      8.4401     8.0000    -0.4401     2.1942     2.1942    -0.0000
 21 C      6.0307     6.0000    -0.0307     3.6767     3.6767     0.0000
 22 H      0.7348     1.0000     0.2652     0.9106     0.9106    -0.0000
 23 C      6.0215     6.0000    -0.0215     3.7403     3.7403    -0.0000
 24 H      0.7570     1.0000     0.2430     0.9068     0.9068     0.0000
 25 O      8.6386     8.0000    -0.6386     1.8757     1.8757    -0.0000
 26 H      0.5638     1.0000     0.4362     0.8040     0.8040    -0.0000
 27 O      8.6582     8.0000    -0.6582     1.8898     1.8898     0.0000
 28 P     13.6282    15.0000     1.3718     5.2072     5.2072    -0.0000
 29 O      8.6994     8.0000    -0.6994     1.9401     1.9401     0.0000
 30 O      8.7599     8.0000    -0.7599     1.8750     1.8750     0.0000
 31 O      8.6071     8.0000    -0.6071     1.9366     1.9366    -0.0000
 32 C      6.1883     6.0000    -0.1883     3.7221     3.7221    -0.0000
 33 H      0.7628     1.0000     0.2372     0.9070     0.9070    -0.0000
 34 H      0.7895     1.0000     0.2105     0.9150     0.9150    -0.0000
 35 C      5.9588     6.0000     0.0412     3.6651     3.6651    -0.0000
 36 H      0.7756     1.0000     0.2244     0.9009     0.9009    -0.0000
 37 O      8.4940     8.0000    -0.4940     2.0318     2.0318    -0.0000
 38 C      5.7750     6.0000     0.2250     3.6623     3.6623     0.0000
 39 H      0.7334     1.0000     0.2666     0.8881     0.8881     0.0000
 40 N      7.5877     7.0000    -0.5877     3.1117     3.1117     0.0000
 41 C      5.9181     6.0000     0.0819     3.5730     3.5730    -0.0000
 42 H      0.6633     1.0000     0.3367     0.8775     0.8775    -0.0000
 43 C      6.4664     6.0000    -0.4664     3.7323     3.7323     0.0000
 44 H      0.7182     1.0000     0.2818     0.9022     0.9022     0.0000
 45 C      5.4466     6.0000     0.5534     4.0544     4.0544    -0.0000
 46 O      8.4339     8.0000    -0.4339     2.1902     2.1902    -0.0000
 47 N      7.7299     7.0000    -0.7299     3.0062     3.0062     0.0000
 48 H      0.6162     1.0000     0.3838     0.8436     0.8436     0.0000
 49 C      5.2883     6.0000     0.7117     4.0697     4.0697    -0.0000
 50 O      8.4593     8.0000    -0.4593     2.1650     2.1650    -0.0000
 51 C      6.0757     6.0000    -0.0757     3.6680     3.6680    -0.0000
 52 H      0.7311     1.0000     0.2689     0.8893     0.8893    -0.0000
 53 C      6.0405     6.0000    -0.0405     3.7185     3.7185     0.0000
 54 H      0.7521     1.0000     0.2479     0.9024     0.9024    -0.0000
 55 O      8.6439     8.0000    -0.6439     1.8430     1.8430    -0.0000
 56 H      0.5783     1.0000     0.4217     0.8182     0.8182    -0.0000
 57 O      8.6388     8.0000    -0.6388     1.8698     1.8698     0.0000
 58 H      0.5724     1.0000     0.4276     0.7949     0.7949     0.0000

  Mayer bond orders larger than 0.100000
B(  0-H ,  1-O ) :   0.7894 B(  1-O ,  2-C ) :   0.9638 B(  2-C ,  3-H ) :   0.9058 
B(  2-C ,  4-H ) :   0.8896 B(  2-C ,  5-C ) :   0.9453 B(  5-C ,  6-H ) :   0.8867 
B(  5-C ,  7-O ) :   0.9228 B(  5-C , 21-C ) :   0.9286 B(  7-O ,  8-C ) :   0.9998 
B(  8-C ,  9-H ) :   0.8637 B(  8-C , 10-N ) :   0.8828 B(  8-C , 23-C ) :   0.8908 
B( 10-N , 11-C ) :   1.0786 B( 10-N , 19-C ) :   1.0213 B( 11-C , 12-H ) :   0.8327 
B( 11-C , 13-C ) :   1.5963 B( 13-C , 14-H ) :   0.9213 B( 13-C , 15-C ) :   1.0785 
B( 15-C , 16-O ) :   1.9970 B( 15-C , 17-N ) :   0.9925 B( 17-N , 18-H ) :   0.8046 
B( 17-N , 19-C ) :   1.0538 B( 19-C , 20-O ) :   1.9758 B( 21-C , 22-H ) :   0.8757 
B( 21-C , 23-C ) :   0.9334 B( 21-C , 27-O ) :   0.9026 B( 23-C , 24-H ) :   0.8933 
B( 23-C , 25-O ) :   1.0549 B( 25-O , 26-H ) :   0.7396 B( 27-O , 28-P ) :   0.8037 
B( 28-P , 29-O ) :   1.8177 B( 28-P , 30-O ) :   1.6623 B( 28-P , 31-O ) :   0.8574 
B( 31-O , 32-C ) :   0.9426 B( 32-C , 33-H ) :   0.8852 B( 32-C , 34-H ) :   0.8775 
B( 32-C , 35-C ) :   0.9738 B( 35-C , 36-H ) :   0.8913 B( 35-C , 37-O ) :   0.9080 
B( 35-C , 51-C ) :   0.9251 B( 37-O , 38-C ) :   1.0247 B( 38-C , 39-H ) :   0.8861 
B( 38-C , 40-N ) :   0.8265 B( 38-C , 53-C ) :   0.9304 B( 40-N , 41-C ) :   1.0744 
B( 40-N , 49-C ) :   1.0416 B( 41-C , 42-H ) :   0.8376 B( 41-C , 43-C ) :   1.5970 
B( 43-C , 44-H ) :   0.9020 B( 43-C , 45-C ) :   1.0834 B( 45-C , 46-O ) :   1.9952 
B( 45-C , 47-N ) :   0.9723 B( 47-N , 48-H ) :   0.8068 B( 47-N , 49-C ) :   1.0756 
B( 49-C , 50-O ) :   1.9381 B( 51-C , 52-H ) :   0.8620 B( 51-C , 53-C ) :   0.9295 
B( 51-C , 57-O ) :   0.9868 B( 53-C , 54-H ) :   0.8910 B( 53-C , 55-O ) :   0.9980 
B( 55-O , 56-H ) :   0.7526 B( 57-O , 58-H ) :   0.7837 

-------
TIMINGS
-------

Total SCF time: 0 days 0 hours 11 min 22 sec 

Total time                  ....     682.482 sec
Sum of individual times     ....     675.092 sec  ( 98.9%)

Fock matrix formation       ....     636.085 sec  ( 93.2%)
  Split-RI-J                ....      37.527 sec  (  5.9% of F)
  Chain of spheres X        ....     525.321 sec  ( 82.6% of F)
  XC integration            ....      62.359 sec  (  9.8% of F)
    Basis function eval.    ....      21.748 sec  ( 34.9% of XC)
    Density eval.           ....      14.027 sec  ( 22.5% of XC)
    XC-Functional eval.     ....       4.113 sec  (  6.6% of XC)
    XC-Potential eval.      ....       7.594 sec  ( 12.2% of XC)
Diagonalization             ....       2.336 sec  (  0.3%)
Density matrix formation    ....       0.220 sec  (  0.0%)
Population analysis         ....       0.509 sec  (  0.1%)
Initial guess               ....       0.489 sec  (  0.1%)
Orbital Transformation      ....       0.000 sec  (  0.0%)
Orbital Orthonormalization  ....       0.000 sec  (  0.0%)
DIIS solution               ....       2.775 sec  (  0.4%)
SOSCF solution              ....       1.837 sec  (  0.3%)
Grid generation             ....      30.841 sec  (  4.5%)

Maximum memory used throughout the entire SCF-calculation: 204.7 MB


-------------------------------------------------------------------------------
                          DFT DISPERSION CORRECTION                            
                                                                               
                              DFTD3 V3.1  Rev 1                                
                          USING Becke-Johnson damping                          
-------------------------------------------------------------------------------
The PBEh-3c composite method is recognized
Using three-body term ABC
Active option DFTDOPT                   ...         4   

molecular C6(AA) [au] = 38274.753136 


            DFT-D V3
 parameters
 s6 scaling factor         :     1.0000 
 a1 scaling factor         :     0.4860 
 s8 scaling factor         :     0.0000 
 a2 scaling factor         :     4.5000 
 Damping factor alpha9(ATM):    16.0000 
 ad hoc parameters k1-k3   :    16.0000     1.3333    -4.0000 

 Edisp/kcal,au: -29.132371558705  -0.046425384246 
 E6   /kcal   : -29.441249928 
 E8   /kcal   :  -0.000000000 
 E6(ABC)      :   0.308878369 
 % E8         :   0.000000000 
 % E6(ABC)    :  -1.060258238 

-------------------------   ----------------
Dispersion correction           -0.046425384
-------------------------   ----------------

------------------   -----------------
gCP correction             0.194427709
------------------   -----------------

-------------------------   --------------------
FINAL SINGLE POINT ENERGY     -2308.305654496977
-------------------------   --------------------


                            ***************************************
                            *     ORCA property calculations      *
                            ***************************************

                                    ---------------------
                                    Active property flags
                                    ---------------------
   (+) Dipole Moment


------------------------------------------------------------------------------
                       ORCA ELECTRIC PROPERTIES CALCULATION
------------------------------------------------------------------------------

Dipole Moment Calculation                       ... on
Quadrupole Moment Calculation                   ... off
Polarizability Calculation                      ... off
GBWName                                         ... pbeh-3c.gbw
Electron density                                ... pbeh-3c.scfp
The origin for moment calculation is the CENTER OF MASS  = (-0.110021, -0.073625  0.448096)

-------------
DIPOLE MOMENT
-------------
                                X             Y             Z
Electronic contribution:     -2.04069      -3.25244      10.29292
Nuclear contribution   :      3.43329       2.76705     -13.09222
                        -----------------------------------------
Total Dipole Moment    :      1.39259      -0.48539      -2.79931
                        -----------------------------------------
Magnitude (a.u.)       :      3.16402
Magnitude (Debye)      :      8.04230



--------------------
Rotational spectrum 
--------------------
 
Rotational constants in cm-1:     0.006616     0.001357     0.001268 
Rotational constants in MHz :   198.339683    40.689766    38.023864 

 Dipole components along the rotational axes: 
x,y,z [a.u.] :    -1.558521    -1.877643    -2.014076 
x,y,z [Debye]:    -3.961444    -4.772589    -5.119375 

 

Timings for individual modules:

Sum of individual times         ...      686.967 sec (=  11.449 min)
GTO integral calculation        ...        4.199 sec (=   0.070 min)   0.6 %
SCF iterations                  ...      682.768 sec (=  11.379 min)  99.4 %
                             ****ORCA TERMINATED NORMALLY****
TOTAL RUN TIME: 0 days 0 hours 11 minutes 28 seconds 959 msec
