
                                 *****************
                                 * O   R   C   A *
                                 *****************

                                            #,                                       
                                            ###                                      
                                            ####                                     
                                            #####                                    
                                            ######                                   
                                           ########,                                 
                                     ,,################,,,,,                         
                               ,,#################################,,                 
                          ,,##########################################,,             
                       ,#########################################, ''#####,          
                    ,#############################################,,   '####,        
                  ,##################################################,,,,####,       
                ,###########''''           ''''###############################       
              ,#####''   ,,,,##########,,,,          '''####'''          '####       
            ,##' ,,,,###########################,,,                        '##       
           ' ,,###''''                  '''############,,,                           
         ,,##''                                '''############,,,,        ,,,,,,###''
      ,#''                                            '''#######################'''  
     '                                                          ''''####''''         
             ,#######,   #######,   ,#######,      ##                                
            ,#'     '#,  ##    ##  ,#'     '#,    #''#        ######   ,####,        
            ##       ##  ##   ,#'  ##            #'  '#       #        #'  '#        
            ##       ##  #######   ##           ,######,      #####,   #    #        
            '#,     ,#'  ##    ##  '#,     ,#' ,#      #,         ##   #,  ,#        
             '#######'   ##     ##  '#######'  #'      '#     #####' # '####'        



                  #######################################################
                  #                        -***-                        #
                  #          Department of theory and spectroscopy      #
                  #    Directorship and core code : Frank Neese         #
                  #        Max Planck Institute fuer Kohlenforschung    #
                  #                Kaiser Wilhelm Platz 1               #
                  #                 D-45470 Muelheim/Ruhr               #
                  #                      Germany                        #
                  #                                                     #
                  #                  All rights reserved                #
                  #                        -***-                        #
                  #######################################################


                         Program Version 5.0.3 -  RELEASE  -


 With contributions from (in alphabetic order):
   Daniel Aravena         : Magnetic Suceptibility
   Michael Atanasov       : Ab Initio Ligand Field Theory (pilot matlab implementation)
   Alexander A. Auer      : GIAO ZORA, VPT2 properties, NMR spectrum
   Ute Becker             : Parallelization
   Giovanni Bistoni       : ED, misc. LED, open-shell LED, HFLD
   Martin Brehm           : Molecular dynamics
   Dmytro Bykov           : SCF Hessian
   Vijay G. Chilkuri      : MRCI spin determinant printing, contributions to CSF-ICE
   Dipayan Datta          : RHF DLPNO-CCSD density
   Achintya Kumar Dutta   : EOM-CC, STEOM-CC
   Dmitry Ganyushin       : Spin-Orbit,Spin-Spin,Magnetic field MRCI
   Miquel Garcia          : C-PCM and meta-GGA Hessian, CC/C-PCM, Gaussian charge scheme
   Yang Guo               : DLPNO-NEVPT2, F12-NEVPT2, CIM, IAO-localization
   Andreas Hansen         : Spin unrestricted coupled pair/coupled cluster methods
   Benjamin Helmich-Paris : MC-RPA, TRAH-SCF, COSX integrals
   Lee Huntington         : MR-EOM, pCC
   Robert Izsak           : Overlap fitted RIJCOSX, COSX-SCS-MP3, EOM
   Marcus Kettner         : VPT2
   Christian Kollmar      : KDIIS, OOCD, Brueckner-CCSD(T), CCSD density, CASPT2, CASPT2-K
   Simone Kossmann        : Meta GGA functionals, TD-DFT gradient, OOMP2, MP2 Hessian
   Martin Krupicka        : Initial AUTO-CI
   Lucas Lang             : DCDCAS
   Marvin Lechner         : AUTO-CI (C++ implementation), FIC-MRCC
   Dagmar Lenk            : GEPOL surface, SMD
   Dimitrios Liakos       : Extrapolation schemes; Compound Job, initial MDCI parallelization
   Dimitrios Manganas     : Further ROCIS development; embedding schemes
   Dimitrios Pantazis     : SARC Basis sets
   Anastasios Papadopoulos: AUTO-CI, single reference methods and gradients
   Taras Petrenko         : DFT Hessian,TD-DFT gradient, ASA, ECA, R-Raman, ABS, FL, XAS/XES, NRVS
   Peter Pinski           : DLPNO-MP2, DLPNO-MP2 Gradient
   Christoph Reimann      : Effective Core Potentials
   Marius Retegan         : Local ZFS, SOC
   Christoph Riplinger    : Optimizer, TS searches, QM/MM, DLPNO-CCSD(T), (RO)-DLPNO pert. Triples
   Tobias Risthaus        : Range-separated hybrids, TD-DFT gradient, RPA, STAB
   Michael Roemelt        : Original ROCIS implementation
   Masaaki Saitow         : Open-shell DLPNO-CCSD energy and density
   Barbara Sandhoefer     : DKH picture change effects
   Avijit Sen             : IP-ROCIS
   Kantharuban Sivalingam : CASSCF convergence, NEVPT2, FIC-MRCI
   Bernardo de Souza      : ESD, SOC TD-DFT
   Georgi Stoychev        : AutoAux, RI-MP2 NMR, DLPNO-MP2 response
   Willem Van den Heuvel  : Paramagnetic NMR
   Boris Wezisla          : Elementary symmetry handling
   Frank Wennmohs         : Technical directorship


 We gratefully acknowledge several colleagues who have allowed us to
 interface, adapt or use parts of their codes:
   Stefan Grimme, W. Hujo, H. Kruse, P. Pracht,  : VdW corrections, initial TS optimization,
                  C. Bannwarth, S. Ehlert          DFT functionals, gCP, sTDA/sTD-DF
   Ed Valeev, F. Pavosevic, A. Kumar             : LibInt (2-el integral package), F12 methods
   Garnet Chan, S. Sharma, J. Yang, R. Olivares  : DMRG
   Ulf Ekstrom                                   : XCFun DFT Library
   Mihaly Kallay                                 : mrcc  (arbitrary order and MRCC methods)
   Jiri Pittner, Ondrej Demel                    : Mk-CCSD
   Frank Weinhold                                : gennbo (NPA and NBO analysis)
   Christopher J. Cramer and Donald G. Truhlar   : smd solvation model
   Lars Goerigk                                  : TD-DFT with DH, B97 family of functionals
   V. Asgeirsson, H. Jonsson                     : NEB implementation
   FAccTs GmbH                                   : IRC, NEB, NEB-TS, DLPNO-Multilevel, CI-OPT
                                                   MM, QMMM, 2- and 3-layer-ONIOM, Crystal-QMMM,
                                                   LR-CPCM, SF, NACMEs, symmetry and pop. for TD-DFT,
                                                   nearIR, NL-DFT gradient (VV10), updates on ESD,
                                                   ML-optimized integration grids
   S Lehtola, MJT Oliveira, MAL Marques          : LibXC Library
   Liviu Ungur et al                             : ANISO software


 Your calculation uses the libint2 library for the computation of 2-el integrals
 For citations please refer to: http://libint.valeyev.net

 Your ORCA version has been built with support for libXC version: 5.1.0
 For citations please refer to: https://tddft.org/programs/libxc/

 This ORCA versions uses:
   CBLAS   interface :  Fast vector & matrix operations
   LAPACKE interface :  Fast linear algebra routines
   SCALAPACK package :  Parallel linear algebra routines
   Shared memory     :  Shared parallel matrices
   BLAS/LAPACK       :  OpenBLAS 0.3.15  USE64BITINT DYNAMIC_ARCH NO_AFFINITY Haswell SINGLE_THREADED
        Core in use  :  Haswell
   Copyright (c) 2011-2014, The OpenBLAS Project




***************************************
The coordinates will be read from file: 13r_8.xyz
***************************************


Your calculation utilizes the geometrical counterpoise correction gCP
Please cite in your paper:
H.Kruse, S. Grimme J.Chem.Phys., 136, (2012), 154101 
   

Your calculation utilizes the atom-pairwise dispersion correction
with the Becke-Johnson damping scheme (D3BJ)
Cite in your paper:
S.Grimme, S.Ehrlich, L.Goerigk, J Comput Chem, (2011), 32, 1456–1465 
S.Grimme, J.Antony, S.Ehrlich and H.Krieg, J.Chem.Phys., 132, (2010), 154104 
   

Your calculation employs the composite approach PBEh-3c.
Please cite in your paper:
S. Grimme, J. G. Brandenburg, C. Bannwarth, A. Hansen J.Chem.Phys., 143, (2015), 054107 
   

================================================================================

----- Orbital basis set information -----
Your calculation utilizes the basis: def2-mSVP

----- AuxJ basis set information -----
Your calculation utilizes the auxiliary basis: def2/J
   F. Weigend, Phys. Chem. Chem. Phys. 8, 1057 (2006).

================================================================================
                                        WARNINGS
                       Please study these warnings very carefully!
================================================================================


INFO   : the flag for use of the SHARK integral package has been found!

================================================================================
                                       INPUT FILE
================================================================================
NAME = pbeh-3c.inp
|  1> ! PBEh-3c def2/J TightSCF DefGrid3
|  2> 
|  3> %maxcore 60000
|  4> 
|  5> %pal
|  6> nprocs 4
|  7> end
|  8> 
|  9> *xyzfile 0 1 13r_8.xyz
| 10> 
| 11>                          ****END OF INPUT****
================================================================================

                       ****************************
                       * Single Point Calculation *
                       ****************************

---------------------------------
CARTESIAN COORDINATES (ANGSTROEM)
---------------------------------
  C      0.981150    0.324632    0.000000
  H      1.054798    1.400225    0.000000
  H      1.835715   -0.330591    0.000000
  N     -0.218204   -0.218682    0.000000
  H     -0.201088   -1.242257    0.000000
  N     -1.370407    0.397915    0.000000
  H     -2.081965   -0.331243    0.000000

----------------------------
CARTESIAN COORDINATES (A.U.)
----------------------------
  NO LB      ZA    FRAG     MASS         X           Y           Z
   0 C     6.0000    0    12.011    1.854104    0.613466    0.000000
   1 H     1.0000    0     1.008    1.993280    2.646042    0.000000
   2 H     1.0000    0     1.008    3.468999   -0.624726    0.000000
   3 N     7.0000    0    14.007   -0.412347   -0.413249    0.000000
   4 H     1.0000    0     1.008   -0.380001   -2.347526    0.000000
   5 N     7.0000    0    14.007   -2.589694    0.751951    0.000000
   6 H     1.0000    0     1.008   -3.934343   -0.625959    0.000000

--------------------------------
INTERNAL COORDINATES (ANGSTROEM)
--------------------------------
 C      0   0   0     0.000000000000     0.00000000     0.00000000
 H      1   0   0     1.078111711697     0.00000000     0.00000000
 H      1   2   0     1.076846715805   123.56145336     0.00000000
 N      1   2   3     1.316677823536   118.28786080   180.00000000
 H      4   1   2     1.023718505001   113.41275038   180.00000085
 N      4   1   2     1.306813817762   127.47591059     0.00000000
 H      6   4   1     1.018816282429   106.14677388   180.00000085

---------------------------
INTERNAL COORDINATES (A.U.)
---------------------------
 C      0   0   0     0.000000000000     0.00000000     0.00000000
 H      1   0   0     2.037335876880     0.00000000     0.00000000
 H      1   2   0     2.034945381085   123.56145336     0.00000000
 N      1   2   3     2.488160493090   118.28786080   180.00000000
 H      4   1   2     1.934547612678   113.41275038   180.00000085
 N      4   1   2     2.469520223595   127.47591059     0.00000000
 H      6   4   1     1.925283754571   106.14677388   180.00000085

---------------------
BASIS SET INFORMATION
---------------------
There are 3 groups of distinct atoms

 Group   1 Type C   : 8s4p1d contracted to 4s2p1d pattern {5111/31/1}
 Group   2 Type H   : 4s contracted to 2s pattern {31}
 Group   3 Type N   : 8s4p1d contracted to 4s2p1d pattern {5111/31/1}

Atom   0C    basis set group =>   1
Atom   1H    basis set group =>   2
Atom   2H    basis set group =>   2
Atom   3N    basis set group =>   3
Atom   4H    basis set group =>   2
Atom   5N    basis set group =>   3
Atom   6H    basis set group =>   2
---------------------------------
AUXILIARY/J BASIS SET INFORMATION
---------------------------------
There are 3 groups of distinct atoms

 Group   1 Type C   : 12s5p4d2f1g contracted to 6s4p3d1f1g pattern {711111/2111/211/2/1}
 Group   2 Type H   : 5s2p1d contracted to 3s1p1d pattern {311/2/1}
 Group   3 Type N   : 12s5p4d2f1g contracted to 6s4p3d1f1g pattern {711111/2111/211/2/1}

Atom   0C    basis set group =>   1
Atom   1H    basis set group =>   2
Atom   2H    basis set group =>   2
Atom   3N    basis set group =>   3
Atom   4H    basis set group =>   2
Atom   5N    basis set group =>   3
Atom   6H    basis set group =>   2


           ************************************************************
           *        Program running with 4 parallel MPI-processes     *
           *              working on a common directory               *
           ************************************************************
------------------------------------------------------------------------------
                           ORCA GTO INTEGRAL CALCULATION
                           -- RI-GTO INTEGRALS CHOSEN --
------------------------------------------------------------------------------
------------------------------------------------------------------------------
                   ___                                                        
                  /   \      - P O W E R E D   B Y -                         
                 /     \                                                     
                 |  |  |   _    _      __       _____    __    __             
                 |  |  |  | |  | |    /  \     |  _  \  |  |  /  |          
                  \  \/   | |  | |   /    \    | | | |  |  | /  /          
                 / \  \   | |__| |  /  /\  \   | |_| |  |  |/  /          
                |  |  |   |  __  | /  /__\  \  |    /   |      \           
                |  |  |   | |  | | |   __   |  |    \   |  |\   \          
                \     /   | |  | | |  |  |  |  | |\  \  |  | \   \       
                 \___/    |_|  |_| |__|  |__|  |_| \__\ |__|  \__/        
                                                                              
                      - O R C A' S   B I G   F R I E N D -                    
                                      &                                       
                       - I N T E G R A L  F E E D E R -                       
                                                                              
 v1 FN, 2020, v2 2021                                                         
------------------------------------------------------------------------------


Reading SHARK input file pbeh-3c.SHARKINP.tmp ... ok
----------------------
SHARK INTEGRAL PACKAGE
----------------------

Number of atoms                             ...      7
Number of basis functions                   ...     53
Number of shells                            ...     29
Maximum angular momentum                    ...      2
Integral batch strategy                     ... SHARK/LIBINT Hybrid
RI-J (if used) integral strategy            ... SPLIT-RIJ (Revised 2003 algorithm where possible)
Printlevel                                  ...      1
Contraction scheme used                     ... SEGMENTED contraction
Coulomb Range Separation                    ... NOT USED
Exchange Range Separation                   ... NOT USED
Finite Nucleus Model                        ... NOT USED
Auxiliary Coulomb fitting basis             ... AVAILABLE
   # of basis functions in Aux-J            ...    191
   # of shells in Aux-J                     ...     65
   Maximum angular momentum in Aux-J        ...      4
Auxiliary J/K fitting basis                 ... NOT available
Auxiliary Correlation fitting basis         ... NOT available
Auxiliary 'external' fitting basis          ... NOT available
Integral threshold                          ...     2.500000e-11
Primitive cut-off                           ...     2.500000e-12
Primitive pair pre-selection threshold      ...     2.500000e-12

Calculating pre-screening integrals         ... done (  0.1 sec) Dimension = 29
Organizing shell pair data                  ... done (  0.3 sec)
Shell pair information
Total number of shell pairs                 ...       435
Shell pairs after pre-screening             ...       429
Total number of primitive shell pairs       ...      1591
Primitive shell pairs kept                  ...      1286
          la=0 lb=0:    204 shell pairs
          la=1 lb=0:    120 shell pairs
          la=1 lb=1:     21 shell pairs
          la=2 lb=0:     60 shell pairs
          la=2 lb=1:     18 shell pairs
          la=2 lb=2:      6 shell pairs

Calculating one electron integrals          ... done (  0.0 sec)
Calculating RI/J V-Matrix + Cholesky decomp.... done (  0.2 sec)
Calculating Nuclear repulsion               ... done (  0.0 sec) ENN=     73.140752475984 Eh

SHARK setup successfully completed in   1.5 seconds

Maximum memory used throughout the entire GTOINT-calculation: 9.1 MB


           ************************************************************
           *        Program running with 4 parallel MPI-processes     *
           *              working on a common directory               *
           ************************************************************
-------------------------------------------------------------------------------
                                 ORCA SCF
-------------------------------------------------------------------------------

------------
SCF SETTINGS
------------
Hamiltonian:
 Density Functional     Method          .... DFT(GTOs)
 Exchange Functional    Exchange        .... PBE
   PBE kappa parameter   XKappa         ....  1.024500
   PBE mue parameter    XMuePBE         ....  0.123457
 Correlation Functional Correlation     .... PBE
   PBE beta parameter  CBetaPBE         ....  0.030000
 LDA part of GGA corr.  LDAOpt          .... PW91-LDA
 Gradients option       PostSCFGGA      .... off
 Hybrid DFT is turned on
   Fraction HF Exchange ScalHFX         ....  0.420000
   Scaling of DF-GGA-X  ScalDFX         ....  0.580000
   Scaling of DF-GGA-C  ScalDFC         ....  1.000000
   Scaling of DF-LDA-C  ScalLDAC        ....  1.000000
   Perturbative correction              ....  0.000000
   Density functional embedding theory  .... OFF
 RI-approximation to the Coulomb term is turned on
   Number of AuxJ basis functions       .... 191
   RIJ-ON(X) (HFX calculated with O(N)) .... on
   Number of AuxJ basis functions       .... 191
   RIJ-COSX (HFX calculated with COS-X)).... on


General Settings:
 Integral files         IntName         .... pbeh-3c
 Hartree-Fock type      HFTyp           .... RHF
 Total Charge           Charge          ....    0
 Multiplicity           Mult            ....    1
 Number of Electrons    NEL             ....   24
 Basis Dimension        Dim             ....   53
 Nuclear Repulsion      ENuc            ....     73.1407524760 Eh

Convergence Acceleration:
 DIIS                   CNVDIIS         .... on
   Start iteration      DIISMaxIt       ....    12
   Startup error        DIISStart       ....  0.200000
   # of expansion vecs  DIISMaxEq       ....     5
   Bias factor          DIISBfac        ....   1.050
   Max. coefficient     DIISMaxC        ....  10.000
 Trust-Rad. Augm. Hess. CNVTRAH         .... auto
   Auto Start mean grad. ratio tolernc. ....  1.125000
   Auto Start start iteration           ....    20
   Auto Start num. interpolation iter.  ....    10
   Max. Number of Micro iterations      ....    16
   Max. Number of Macro iterations      .... Maxiter - #DIIS iter
   Number of Davidson start vectors     ....     2
   Converg. threshold I  (grad. norm)   ....   1.000e-05
   Converg. threshold II (energy diff.) ....   1.000e-08
   Grad. Scal. Fac. for Micro threshold ....   0.100
   Minimum threshold for Micro iter.    ....   0.010
   NR start threshold (gradient norm)   ....   0.001
   Initial trust radius                 ....   0.400
   Minimum AH scaling param. (alpha)    ....   1.000
   Maximum AH scaling param. (alpha)    .... 1000.000
   Orbital update algorithm             .... Taylor
   White noise on init. David. guess    .... on
   Maximum white noise                  ....   0.010
   Quad. conv. algorithm                .... NR
   COSX micro iterations for RIJONX calc.... off
 SOSCF                  CNVSOSCF        .... on
   Start iteration      SOSCFMaxIt      ....   150
   Startup grad/error   SOSCFStart      ....  0.003300
 Level Shifting         CNVShift        .... on
   Level shift para.    LevelShift      ....    0.2500
   Turn off err/grad.   ShiftErr        ....    0.0010
 Zerner damping         CNVZerner       .... off
 Static damping         CNVDamp         .... on
   Fraction old density DampFac         ....    0.7000
   Max. Damping (<1)    DampMax         ....    0.9800
   Min. Damping (>=0)   DampMin         ....    0.0000
   Turn off err/grad.   DampErr         ....    0.1000
 Fernandez-Rico         CNVRico         .... off

SCF Procedure:
 Maximum # iterations   MaxIter         ....   125
 SCF integral mode      SCFMode         .... Direct
   Integral package                     .... SHARK and LIBINT hybrid scheme
 Reset frequency        DirectResetFreq ....    20
 Integral Threshold     Thresh          ....  2.500e-11 Eh
 Primitive CutOff       TCut            ....  2.500e-12 Eh

Convergence Tolerance:
 Convergence Check Mode ConvCheckMode   .... Total+1el-Energy
 Convergence forced     ConvForced      .... 0
 Energy Change          TolE            ....  1.000e-08 Eh
 1-El. energy change                    ....  1.000e-05 Eh
 Orbital Gradient       TolG            ....  1.000e-05
 Orbital Rotation angle TolX            ....  1.000e-05
 DIIS Error             TolErr          ....  5.000e-07


Diagonalization of the overlap matrix:
Smallest eigenvalue                        ... 8.281e-03
Time for diagonalization                   ...    0.001 sec
Threshold for overlap eigenvalues          ... 1.000e-08
Number of eigenvalues below threshold      ... 0
Time for construction of square roots      ...    0.120 sec
Total time needed                          ...    0.131 sec

--------------------------------
INITIAL GUESS: MINIMAL BASIS EHT
--------------------------------
The minimal basis has 19 functions
EHT matrix was diagonalized
Basis set overlap was calculated now projecting the orbitals
Using GuessMode=FMatrix for the initial guess
C*T matrix was formed
Effective Fockian was calculated
Effective Fockian was diagonalized
Initial density was built
                      ------------------
                      INITIAL GUESS DONE
                      ------------------
-------------------
DFT GRID GENERATION
-------------------

General Integration Accuracy     IntAcc      ... 4.959
Radial Grid Type                 RadialGrid  ... OptM3 with GC (2021)
Angular Grid (max. ang.)         AngularGrid ... 6 (Lebedev-590)
Angular grid pruning method      GridPruning ... 4 (adaptive)
Weight generation scheme         WeightScheme... Becke
Basis function cutoff            BFCut       ... 1.0000e-11
Integration weight cutoff        WCut        ... 1.0000e-14
Angular grids for H and He will be reduced by one unit
Partially contracted basis set               ... off
Rotationally invariant grid construction     ... off

Total number of grid points                  ...    79218
Total number of batches                      ...     1241
Average number of points per batch           ...       63
Average number of grid points per atom       ...    11317
Time for grid setup =    1.430 sec

--------------------
COSX GRID GENERATION
--------------------

GRIDX 1
-------
General Integration Accuracy     IntAcc      ... 4.020
Radial Grid Type                 RadialGrid  ... OptM3 with GC (2021)
Angular Grid (max. ang.)         AngularGrid ... 2 (Lebedev-110)
Angular grid pruning method      GridPruning ... 4 (adaptive)
Weight generation scheme         WeightScheme... Becke
Basis function cutoff            BFCut       ... 1.0000e-11
Integration weight cutoff        WCut        ... 1.0000e-14
Angular grids for H and He will be reduced by one unit
Partially contracted basis set               ... on
Rotationally invariant grid construction     ... off

Total number of grid points                  ...     8725
Total number of batches                      ...      140
Average number of points per batch           ...       62
Average number of grid points per atom       ...     1246
UseSFitting                                  ... on

GRIDX 2
-------
General Integration Accuracy     IntAcc      ... 4.338
Radial Grid Type                 RadialGrid  ... OptM3 with GC (2021)
Angular Grid (max. ang.)         AngularGrid ... 3 (Lebedev-194)
Angular grid pruning method      GridPruning ... 4 (adaptive)
Weight generation scheme         WeightScheme... Becke
Basis function cutoff            BFCut       ... 1.0000e-11
Integration weight cutoff        WCut        ... 1.0000e-14
Angular grids for H and He will be reduced by one unit
Partially contracted basis set               ... on
Rotationally invariant grid construction     ... off

Total number of grid points                  ...    19268
Total number of batches                      ...      304
Average number of points per batch           ...       63
Average number of grid points per atom       ...     2753
UseSFitting                                  ... on

GRIDX 3
-------
General Integration Accuracy     IntAcc      ... 4.871
Radial Grid Type                 RadialGrid  ... OptM3 with GC (2021)
Angular Grid (max. ang.)         AngularGrid ... 4 (Lebedev-302)
Angular grid pruning method      GridPruning ... 4 (adaptive)
Weight generation scheme         WeightScheme... Becke
Basis function cutoff            BFCut       ... 1.0000e-11
Integration weight cutoff        WCut        ... 1.0000e-14
Angular grids for H and He will be reduced by one unit
Partially contracted basis set               ... on
Rotationally invariant grid construction     ... off

Total number of grid points                  ...    37763
Total number of batches                      ...      595
Average number of points per batch           ...       63
Average number of grid points per atom       ...     5395
UseSFitting                                  ... on

Time for X-Grid setup             =    2.524 sec

--------------
SCF ITERATIONS
--------------
ITER       Energy         Delta-E        Max-DP      RMS-DP      [F,P]     Damp
               ***  Starting incremental Fock matrix formation  ***
  0   -148.9979153483   0.000000000000 0.25518785  0.01037570  0.4647446 0.7000
  1   -149.2331828013  -0.235267453060 0.15819319  0.00616186  0.2712400 0.7000
                               ***Turning on DIIS***
  2   -149.3312203839  -0.098037582585 0.06687769  0.00317549  0.1901467 0.7000
  3   -149.4027886540  -0.071568270095 0.03739263  0.00237382  0.1329710 0.7000
  4   -149.4577325733  -0.054943919296 0.09410268  0.00584959  0.0930731 0.0000
  5   -149.5903589248  -0.132626351479 0.01554364  0.00080541  0.0112499 0.0000
  6   -149.5907220982  -0.000363173371 0.00517949  0.00032866  0.0066002 0.0000
                      *** Initiating the SOSCF procedure ***
                           *** Shutting down DIIS ***
                      *** Re-Reading the Fockian *** 
                      *** Removing any level shift *** 
ITER      Energy       Delta-E        Grad      Rot      Max-DP    RMS-DP
  7   -149.59085761  -0.0001355110  0.001204  0.001204  0.005723  0.000208
               *** Restarting incremental Fock matrix formation ***
  8   -149.59087185  -0.0000142431  0.000529  0.001062  0.003500  0.000125
  9   -149.59087561  -0.0000037569  0.000385  0.001549  0.002444  0.000106
 10   -149.59087573  -0.0000001168  0.000391  0.000801  0.001238  0.000053
 11   -149.59087666  -0.0000009381  0.000070  0.000093  0.000293  0.000012
 12   -149.59087665   0.0000000165  0.000077  0.000041  0.000193  0.000008
                  ***Gradient check signals convergence***
              ***Rediagonalizing the Fockian in SOSCF/NRSCF***

               *****************************************************
               *                     SUCCESS                       *
               *           SCF CONVERGED AFTER  13 CYCLES          *
               *****************************************************

Old exchange energy                            =     -8.279595902 Eh
New exchange energy                            =     -8.279590929 Eh
Exchange energy change after final integration =      0.000004973 Eh
Total energy after final integration           =   -149.590871726 Eh
Final COS-X integration done in                =     0.662 sec

----------------
TOTAL SCF ENERGY
----------------

Total Energy       :         -149.59087173 Eh           -4070.57456 eV

Components:
Nuclear Repulsion  :           73.14075248 Eh            1990.26106 eV
Electronic Energy  :         -222.73162420 Eh           -6060.83562 eV
One Electron Energy:         -346.46166984 Eh           -9427.70133 eV
Two Electron Energy:          123.73004564 Eh            3366.86571 eV
Max COSX asymmetry :            0.00000089 Eh               0.00002 eV

Virial components:
Potential Energy   :         -298.09767318 Eh           -8111.65008 eV
Kinetic Energy     :          148.50680146 Eh            4041.07551 eV
Virial Ratio       :            2.00729980


DFT components:
N(Alpha)           :       12.000000069124 electrons
N(Beta)            :       12.000000069124 electrons
N(Total)           :       24.000000138248 electrons
E(X)               :      -11.036494022943 Eh       
E(C)               :       -1.038103511384 Eh       
E(XC)              :      -12.074597534327 Eh       
DFET-embed. en.    :        0.000000000000 Eh       

---------------
SCF CONVERGENCE
---------------

  Last Energy change         ...   -5.1683e-08  Tolerance :   1.0000e-08
  Last MAX-Density change    ...    6.6613e-16  Tolerance :   1.0000e-07
  Last RMS-Density change    ...    5.3380e-17  Tolerance :   5.0000e-09
  Last Orbital Gradient      ...    1.1733e-06  Tolerance :   1.0000e-05
  Last Orbital Rotation      ...    2.1298e-06  Tolerance :   1.0000e-05

             **** THE GBW FILE WAS UPDATED (pbeh-3c.gbw) ****
             **** DENSITY pbeh-3c.scfp WAS UPDATED ****
             **** ENERGY FILE WAS UPDATED (pbeh-3c.en.tmp) ****
             **** THE GBW FILE WAS UPDATED (pbeh-3c.gbw) ****
             **** DENSITY pbeh-3c.scfp WAS UPDATED ****
----------------
ORBITAL ENERGIES
----------------

  NO   OCC          E(Eh)            E(eV) 
   0   2.0000     -14.760482      -401.6531 
   1   2.0000     -14.610811      -397.5804 
   2   2.0000     -10.458207      -284.5823 
   3   2.0000      -1.135458       -30.8974 
   4   2.0000      -0.890243       -24.2248 
   5   2.0000      -0.715493       -19.4695 
   6   2.0000      -0.626985       -17.0611 
   7   2.0000      -0.537311       -14.6210 
   8   2.0000      -0.478681       -13.0256 
   9   2.0000      -0.471387       -12.8271 
  10   2.0000      -0.326895        -8.8953 
  11   2.0000      -0.224831        -6.1180 
  12   0.0000       0.019029         0.5178 
  13   0.0000       0.094017         2.5583 
  14   0.0000       0.192868         5.2482 
  15   0.0000       0.197775         5.3817 
  16   0.0000       0.237872         6.4728 
  17   0.0000       0.282232         7.6799 
  18   0.0000       0.399076        10.8594 
  19   0.0000       0.548451        14.9241 
  20   0.0000       0.561195        15.2709 
  21   0.0000       0.606730        16.5100 
  22   0.0000       0.694660        18.9027 
  23   0.0000       0.774579        21.0774 
  24   0.0000       0.800958        21.7952 
  25   0.0000       0.811893        22.0927 
  26   0.0000       0.884293        24.0628 
  27   0.0000       0.948727        25.8162 
  28   0.0000       1.003559        27.3082 
  29   0.0000       1.030357        28.0374 
  30   0.0000       1.068372        29.0719 
  31   0.0000       1.074692        29.2439 
  32   0.0000       1.320116        35.9222 
  33   0.0000       1.370963        37.3058 
  34   0.0000       1.423836        38.7445 
  35   0.0000       1.476695        40.1829 
  36   0.0000       1.552437        42.2440 
  37   0.0000       1.750204        47.6255 
  38   0.0000       1.846409        50.2433 
  39   0.0000       1.955413        53.2095 
  40   0.0000       1.981102        53.9085 
  41   0.0000       2.185600        59.4732 
  42   0.0000       2.261482        61.5381 
  43   0.0000       2.303753        62.6883 
  44   0.0000       2.323835        63.2348 
  45   0.0000       2.535045        68.9821 
  46   0.0000       2.614483        71.1437 
  47   0.0000       2.686802        73.1116 
  48   0.0000       2.812170        76.5230 
  49   0.0000       3.019958        82.1772 
  50   0.0000      13.648726       371.4007 
  51   0.0000      18.903675       514.3952 
  52   0.0000      19.265729       524.2471 

                    ********************************
                    * MULLIKEN POPULATION ANALYSIS *
                    ********************************

-----------------------
MULLIKEN ATOMIC CHARGES
-----------------------
   0 C :   -0.386234
   1 H :    0.243610
   2 H :    0.217307
   3 N :   -0.227583
   4 H :    0.361786
   5 N :   -0.498372
   6 H :    0.289486
Sum of atomic charges:    0.0000000

--------------------------------
MULLIKEN REDUCED ORBITAL CHARGES
--------------------------------
  0 C s       :     3.244281  s :     3.244281
      pz      :     1.186501  p :     3.097345
      px      :     0.835564
      py      :     1.075280
      dz2     :     0.005499  d :     0.044609
      dxz     :     0.006538
      dyz     :     0.001699
      dx2y2   :     0.015024
      dxy     :     0.015849
  1 H s       :     0.756390  s :     0.756390
  2 H s       :     0.782693  s :     0.782693
  3 N s       :     3.459992  s :     3.459992
      pz      :     1.331469  p :     3.686649
      px      :     1.116587
      py      :     1.238594
      dz2     :     0.004444  d :     0.080942
      dxz     :     0.030300
      dyz     :     0.000758
      dx2y2   :     0.027767
      dxy     :     0.017673
  4 H s       :     0.638214  s :     0.638214
  5 N s       :     3.693657  s :     3.693657
      pz      :     1.431501  p :     3.755313
      px      :     0.865877
      py      :     1.457936
      dz2     :     0.007429  d :     0.049402
      dxz     :     0.005709
      dyz     :     0.005526
      dx2y2   :     0.006760
      dxy     :     0.023978
  6 H s       :     0.710514  s :     0.710514


                     *******************************
                     * LOEWDIN POPULATION ANALYSIS *
                     *******************************

----------------------
LOEWDIN ATOMIC CHARGES
----------------------
   0 C :   -0.321696
   1 H :    0.143997
   2 H :    0.129038
   3 N :    0.042642
   4 H :    0.243566
   5 N :   -0.436635
   6 H :    0.199087

-------------------------------
LOEWDIN REDUCED ORBITAL CHARGES
-------------------------------
  0 C s       :     2.961100  s :     2.961100
      pz      :     1.195941  p :     3.269546
      px      :     0.977543
      py      :     1.096061
      dz2     :     0.008779  d :     0.091050
      dxz     :     0.012396
      dyz     :     0.002754
      dx2y2   :     0.032199
      dxy     :     0.034921
  1 H s       :     0.856003  s :     0.856003
  2 H s       :     0.870962  s :     0.870962
  3 N s       :     3.073180  s :     3.073180
      pz      :     1.268679  p :     3.707389
      px      :     1.220215
      py      :     1.218494
      dz2     :     0.007315  d :     0.176789
      dxz     :     0.061157
      dyz     :     0.001565
      dx2y2   :     0.061968
      dxy     :     0.044786
  4 H s       :     0.756434  s :     0.756434
  5 N s       :     3.370118  s :     3.370118
      pz      :     1.439091  p :     3.972390
      px      :     1.016946
      py      :     1.516353
      dz2     :     0.012520  d :     0.094127
      dxz     :     0.011963
      dyz     :     0.006454
      dx2y2   :     0.016037
      dxy     :     0.047153
  6 H s       :     0.800913  s :     0.800913


                      *****************************
                      * MAYER POPULATION ANALYSIS *
                      *****************************

  NA   - Mulliken gross atomic population
  ZA   - Total nuclear charge
  QA   - Mulliken gross atomic charge
  VA   - Mayer's total valence
  BVA  - Mayer's bonded valence
  FA   - Mayer's free valence

  ATOM       NA         ZA         QA         VA         BVA        FA
  0 C      6.3862     6.0000    -0.3862     3.6892     3.6892     0.0000
  1 H      0.7564     1.0000     0.2436     0.9273     0.9273     0.0000
  2 H      0.7827     1.0000     0.2173     0.9275     0.9275     0.0000
  3 N      7.2276     7.0000    -0.2276     3.6345     3.6345     0.0000
  4 H      0.6382     1.0000     0.3618     0.8259     0.8259     0.0000
  5 N      7.4984     7.0000    -0.4984     2.6647     2.6647    -0.0000
  6 H      0.7105     1.0000     0.2895     0.8779     0.8779    -0.0000

  Mayer bond orders larger than 0.100000
B(  0-C ,  1-H ) :   0.9178 B(  0-C ,  2-H ) :   0.9245 B(  0-C ,  3-N ) :   1.4595 
B(  0-C ,  5-N ) :   0.3884 B(  3-N ,  4-H ) :   0.8038 B(  3-N ,  5-N ) :   1.3755 
B(  5-N ,  6-H ) :   0.8649 

-------
TIMINGS
-------

Total SCF time: 0 days 0 hours 0 min 57 sec 

Total time                  ....      57.638 sec
Sum of individual times     ....      50.032 sec  ( 86.8%)

Fock matrix formation       ....      42.042 sec  ( 72.9%)
  Split-RI-J                ....       5.903 sec  ( 14.0% of F)
  Chain of spheres X        ....       5.984 sec  ( 14.2% of F)
  XC integration            ....      13.615 sec  ( 32.4% of F)
    Basis function eval.    ....       0.757 sec  (  5.6% of XC)
    Density eval.           ....       0.741 sec  (  5.4% of XC)
    XC-Functional eval.     ....       0.731 sec  (  5.4% of XC)
    XC-Potential eval.      ....       0.226 sec  (  1.7% of XC)
Diagonalization             ....       0.773 sec  (  1.3%)
Density matrix formation    ....       0.036 sec  (  0.1%)
Population analysis         ....       0.428 sec  (  0.7%)
Initial guess               ....       0.004 sec  (  0.0%)
Orbital Transformation      ....       0.000 sec  (  0.0%)
Orbital Orthonormalization  ....       0.000 sec  (  0.0%)
DIIS solution               ....       1.551 sec  (  2.7%)
SOSCF solution              ....       1.245 sec  (  2.2%)
Grid generation             ....       3.953 sec  (  6.9%)

Maximum memory used throughout the entire SCF-calculation: 45.9 MB


-------------------------------------------------------------------------------
                          DFT DISPERSION CORRECTION                            
                                                                               
                              DFTD3 V3.1  Rev 1                                
                          USING Becke-Johnson damping                          
-------------------------------------------------------------------------------
The PBEh-3c composite method is recognized
Using three-body term ABC
Active option DFTDOPT                   ...         4   

molecular C6(AA) [au] = 416.807147 


            DFT-D V3
 parameters
 s6 scaling factor         :     1.0000 
 a1 scaling factor         :     0.4860 
 s8 scaling factor         :     0.0000 
 a2 scaling factor         :     4.5000 
 Damping factor alpha9(ATM):    16.0000 
 ad hoc parameters k1-k3   :    16.0000     1.3333    -4.0000 

 Edisp/kcal,au: -1.175839149257  -0.001873818759 
 E6   /kcal   :  -1.176062664 
 E8   /kcal   :  -0.000000000 
 E6(ABC)      :   0.000223514 
 % E8         :   0.000000000 
 % E6(ABC)    :  -0.019008930 

-------------------------   ----------------
Dispersion correction           -0.001873819
-------------------------   ----------------

------------------   -----------------
gCP correction             0.011321672
------------------   -----------------

-------------------------   --------------------
FINAL SINGLE POINT ENERGY      -149.581423873481
-------------------------   --------------------


                            ***************************************
                            *     ORCA property calculations      *
                            ***************************************

                                    ---------------------
                                    Active property flags
                                    ---------------------
   (+) Dipole Moment


------------------------------------------------------------------------------
                       ORCA ELECTRIC PROPERTIES CALCULATION
------------------------------------------------------------------------------

Dipole Moment Calculation                       ... on
Quadrupole Moment Calculation                   ... off
Polarizability Calculation                      ... off
GBWName                                         ... pbeh-3c.gbw
Electron density                                ... pbeh-3c.scfp
The origin for moment calculation is the CENTER OF MASS  = (-0.422698,  0.253144  0.000000)

-------------
DIPOLE MOMENT
-------------
                                X             Y             Z
Electronic contribution:     -0.95350      -0.24603       0.00000
Nuclear contribution   :      1.40303      -0.97591       0.00000
                        -----------------------------------------
Total Dipole Moment    :      0.44953      -1.22193       0.00000
                        -----------------------------------------
Magnitude (a.u.)       :      1.30200
Magnitude (Debye)      :      3.30942



--------------------
Rotational spectrum 
--------------------
 
Rotational constants in cm-1:     2.369148     0.372473     0.321869 
Rotational constants in MHz : 71025.264007 11166.458583  9649.398308 

 Dipole components along the rotational axes: 
x,y,z [a.u.] :    -0.449530    -1.221935     0.000000 
x,y,z [Debye]:    -1.142615    -3.105911     0.000000 

 

Timings for individual modules:

Sum of individual times         ...       60.611 sec (=   1.010 min)
GTO integral calculation        ...        2.377 sec (=   0.040 min)   3.9 %
SCF iterations                  ...       58.235 sec (=   0.971 min)  96.1 %
                             ****ORCA TERMINATED NORMALLY****
TOTAL RUN TIME: 0 days 0 hours 1 minutes 6 seconds 233 msec
