
                                 *****************
                                 * O   R   C   A *
                                 *****************

                                            #,                                       
                                            ###                                      
                                            ####                                     
                                            #####                                    
                                            ######                                   
                                           ########,                                 
                                     ,,################,,,,,                         
                               ,,#################################,,                 
                          ,,##########################################,,             
                       ,#########################################, ''#####,          
                    ,#############################################,,   '####,        
                  ,##################################################,,,,####,       
                ,###########''''           ''''###############################       
              ,#####''   ,,,,##########,,,,          '''####'''          '####       
            ,##' ,,,,###########################,,,                        '##       
           ' ,,###''''                  '''############,,,                           
         ,,##''                                '''############,,,,        ,,,,,,###''
      ,#''                                            '''#######################'''  
     '                                                          ''''####''''         
             ,#######,   #######,   ,#######,      ##                                
            ,#'     '#,  ##    ##  ,#'     '#,    #''#        ######   ,####,        
            ##       ##  ##   ,#'  ##            #'  '#       #        #'  '#        
            ##       ##  #######   ##           ,######,      #####,   #    #        
            '#,     ,#'  ##    ##  '#,     ,#' ,#      #,         ##   #,  ,#        
             '#######'   ##     ##  '#######'  #'      '#     #####' # '####'        



                  #######################################################
                  #                        -***-                        #
                  #          Department of theory and spectroscopy      #
                  #    Directorship and core code : Frank Neese         #
                  #        Max Planck Institute fuer Kohlenforschung    #
                  #                Kaiser Wilhelm Platz 1               #
                  #                 D-45470 Muelheim/Ruhr               #
                  #                      Germany                        #
                  #                                                     #
                  #                  All rights reserved                #
                  #                        -***-                        #
                  #######################################################


                         Program Version 5.0.3 -  RELEASE  -


 With contributions from (in alphabetic order):
   Daniel Aravena         : Magnetic Suceptibility
   Michael Atanasov       : Ab Initio Ligand Field Theory (pilot matlab implementation)
   Alexander A. Auer      : GIAO ZORA, VPT2 properties, NMR spectrum
   Ute Becker             : Parallelization
   Giovanni Bistoni       : ED, misc. LED, open-shell LED, HFLD
   Martin Brehm           : Molecular dynamics
   Dmytro Bykov           : SCF Hessian
   Vijay G. Chilkuri      : MRCI spin determinant printing, contributions to CSF-ICE
   Dipayan Datta          : RHF DLPNO-CCSD density
   Achintya Kumar Dutta   : EOM-CC, STEOM-CC
   Dmitry Ganyushin       : Spin-Orbit,Spin-Spin,Magnetic field MRCI
   Miquel Garcia          : C-PCM and meta-GGA Hessian, CC/C-PCM, Gaussian charge scheme
   Yang Guo               : DLPNO-NEVPT2, F12-NEVPT2, CIM, IAO-localization
   Andreas Hansen         : Spin unrestricted coupled pair/coupled cluster methods
   Benjamin Helmich-Paris : MC-RPA, TRAH-SCF, COSX integrals
   Lee Huntington         : MR-EOM, pCC
   Robert Izsak           : Overlap fitted RIJCOSX, COSX-SCS-MP3, EOM
   Marcus Kettner         : VPT2
   Christian Kollmar      : KDIIS, OOCD, Brueckner-CCSD(T), CCSD density, CASPT2, CASPT2-K
   Simone Kossmann        : Meta GGA functionals, TD-DFT gradient, OOMP2, MP2 Hessian
   Martin Krupicka        : Initial AUTO-CI
   Lucas Lang             : DCDCAS
   Marvin Lechner         : AUTO-CI (C++ implementation), FIC-MRCC
   Dagmar Lenk            : GEPOL surface, SMD
   Dimitrios Liakos       : Extrapolation schemes; Compound Job, initial MDCI parallelization
   Dimitrios Manganas     : Further ROCIS development; embedding schemes
   Dimitrios Pantazis     : SARC Basis sets
   Anastasios Papadopoulos: AUTO-CI, single reference methods and gradients
   Taras Petrenko         : DFT Hessian,TD-DFT gradient, ASA, ECA, R-Raman, ABS, FL, XAS/XES, NRVS
   Peter Pinski           : DLPNO-MP2, DLPNO-MP2 Gradient
   Christoph Reimann      : Effective Core Potentials
   Marius Retegan         : Local ZFS, SOC
   Christoph Riplinger    : Optimizer, TS searches, QM/MM, DLPNO-CCSD(T), (RO)-DLPNO pert. Triples
   Tobias Risthaus        : Range-separated hybrids, TD-DFT gradient, RPA, STAB
   Michael Roemelt        : Original ROCIS implementation
   Masaaki Saitow         : Open-shell DLPNO-CCSD energy and density
   Barbara Sandhoefer     : DKH picture change effects
   Avijit Sen             : IP-ROCIS
   Kantharuban Sivalingam : CASSCF convergence, NEVPT2, FIC-MRCI
   Bernardo de Souza      : ESD, SOC TD-DFT
   Georgi Stoychev        : AutoAux, RI-MP2 NMR, DLPNO-MP2 response
   Willem Van den Heuvel  : Paramagnetic NMR
   Boris Wezisla          : Elementary symmetry handling
   Frank Wennmohs         : Technical directorship


 We gratefully acknowledge several colleagues who have allowed us to
 interface, adapt or use parts of their codes:
   Stefan Grimme, W. Hujo, H. Kruse, P. Pracht,  : VdW corrections, initial TS optimization,
                  C. Bannwarth, S. Ehlert          DFT functionals, gCP, sTDA/sTD-DF
   Ed Valeev, F. Pavosevic, A. Kumar             : LibInt (2-el integral package), F12 methods
   Garnet Chan, S. Sharma, J. Yang, R. Olivares  : DMRG
   Ulf Ekstrom                                   : XCFun DFT Library
   Mihaly Kallay                                 : mrcc  (arbitrary order and MRCC methods)
   Jiri Pittner, Ondrej Demel                    : Mk-CCSD
   Frank Weinhold                                : gennbo (NPA and NBO analysis)
   Christopher J. Cramer and Donald G. Truhlar   : smd solvation model
   Lars Goerigk                                  : TD-DFT with DH, B97 family of functionals
   V. Asgeirsson, H. Jonsson                     : NEB implementation
   FAccTs GmbH                                   : IRC, NEB, NEB-TS, DLPNO-Multilevel, CI-OPT
                                                   MM, QMMM, 2- and 3-layer-ONIOM, Crystal-QMMM,
                                                   LR-CPCM, SF, NACMEs, symmetry and pop. for TD-DFT,
                                                   nearIR, NL-DFT gradient (VV10), updates on ESD,
                                                   ML-optimized integration grids
   S Lehtola, MJT Oliveira, MAL Marques          : LibXC Library
   Liviu Ungur et al                             : ANISO software


 Your calculation uses the libint2 library for the computation of 2-el integrals
 For citations please refer to: http://libint.valeyev.net

 Your ORCA version has been built with support for libXC version: 5.1.0
 For citations please refer to: https://tddft.org/programs/libxc/

 This ORCA versions uses:
   CBLAS   interface :  Fast vector & matrix operations
   LAPACKE interface :  Fast linear algebra routines
   SCALAPACK package :  Parallel linear algebra routines
   Shared memory     :  Shared parallel matrices
   BLAS/LAPACK       :  OpenBLAS 0.3.15  USE64BITINT DYNAMIC_ARCH NO_AFFINITY Haswell SINGLE_THREADED
        Core in use  :  Haswell
   Copyright (c) 2011-2014, The OpenBLAS Project




***************************************
The coordinates will be read from file: 37.xyz
***************************************


Your calculation utilizes the geometrical counterpoise correction gCP
Please cite in your paper:
H.Kruse, S. Grimme J.Chem.Phys., 136, (2012), 154101 
   

Your calculation utilizes the atom-pairwise dispersion correction
with the Becke-Johnson damping scheme (D3BJ)
Cite in your paper:
S.Grimme, S.Ehrlich, L.Goerigk, J Comput Chem, (2011), 32, 1456–1465 
S.Grimme, J.Antony, S.Ehrlich and H.Krieg, J.Chem.Phys., 132, (2010), 154104 
   

Your calculation employs the composite approach PBEh-3c.
Please cite in your paper:
S. Grimme, J. G. Brandenburg, C. Bannwarth, A. Hansen J.Chem.Phys., 143, (2015), 054107 
   

================================================================================

----- Orbital basis set information -----
Your calculation utilizes the basis: def2-mSVP

----- AuxJ basis set information -----
Your calculation utilizes the auxiliary basis: def2/J
   F. Weigend, Phys. Chem. Chem. Phys. 8, 1057 (2006).

================================================================================
                                        WARNINGS
                       Please study these warnings very carefully!
================================================================================


INFO   : the flag for use of the SHARK integral package has been found!

================================================================================
                                       INPUT FILE
================================================================================
NAME = pbeh-3c.inp
|  1> ! PBEh-3c def2/J TightSCF DefGrid3
|  2> 
|  3> %maxcore 60000
|  4> 
|  5> %pal
|  6> nprocs 4
|  7> end
|  8> 
|  9> *xyzfile 0 1 37.xyz
| 10> 
| 11>                          ****END OF INPUT****
================================================================================

                       ****************************
                       * Single Point Calculation *
                       ****************************

---------------------------------
CARTESIAN COORDINATES (ANGSTROEM)
---------------------------------
  B      0.731468   -2.076499    1.172159
  Si    -2.616109    1.015184   -0.471842
  B      1.530830   -1.291737   -0.081481
  O     -0.273269   -1.963518    2.061570
  H     -3.679605    1.655219   -1.283805
  S      2.149314   -2.948772    0.555179
  Al    -0.892368   -0.724773    0.934873
  C     -2.709904   -0.451075    0.447041
  H     -0.197426    0.896731    0.637320
  B     -0.687889    1.410475   -0.450354
  H     -3.532804   -1.150688    0.566255
  S      0.488867    1.955938   -1.567722
  F      3.253004    1.543831   -1.438755
  O      2.086318   -0.387155   -0.847261
  B      2.210509    1.079319   -0.690785
  H      2.139065    1.437522    0.457608

----------------------------
CARTESIAN COORDINATES (A.U.)
----------------------------
  NO LB      ZA    FRAG     MASS         X           Y           Z
   0 B     5.0000    0    10.810    1.382274   -3.924014    2.215059
   1 Si   14.0000    0    28.086   -4.943729    1.918420   -0.891651
   2 B     5.0000    0    10.810    2.892849   -2.441029   -0.153977
   3 O     8.0000    0    15.999   -0.516403   -3.710511    3.895803
   4 H     1.0000    0     1.008   -6.953445    3.127911   -2.426040
   5 S    16.0000    0    32.060    4.061616   -5.572371    1.049135
   6 Al   13.0000    0    26.982   -1.686331   -1.369623    1.766654
   7 C     6.0000    0    12.011   -5.120977   -0.852409    0.844784
   8 H     1.0000    0     1.008   -0.373081    1.694576    1.204361
   9 B     5.0000    0    10.810   -1.299922    2.665411   -0.851045
  10 H     1.0000    0     1.008   -6.676033   -2.174485    1.070067
  11 S    16.0000    0    32.060    0.923825    3.696187   -2.962564
  12 F     9.0000    0    18.998    6.147286    2.917418   -2.718853
  13 O     8.0000    0    15.999    3.942569   -0.731618   -1.601091
  14 B     5.0000    0    10.810    4.177256    2.039617   -1.305395
  15 H     1.0000    0     1.008    4.042248    2.716523    0.864753

--------------------------------
INTERNAL COORDINATES (ANGSTROEM)
--------------------------------
 B      0   0   0     0.000000000000     0.00000000     0.00000000
 Si     1   0   0     4.844327861268     0.00000000     0.00000000
 B      1   2   0     1.681203067673    77.14995484     0.00000000
 O      1   2   3     1.346593465350    69.81829599   165.22581515
 H      2   1   3     1.483223702877   163.06900809    78.63420218
 S      1   2   3     1.775334694312   138.37527620   332.75685875
 Al     4   1   2     1.785278337453    84.26784209   355.55354939
 C      2   1   3     1.732933664799    46.95744567   158.79222764
 H      7   4   1     1.789066183943   126.80835548   289.33746394
 B      9   7   4     1.299046571875   110.55066188   164.79059244
 H      8   2   1     1.086662224435   130.08346423   203.01454341
 S     10   9   7     1.711956895570   114.39143047   232.48113545
 F     12  10   9     2.797662317251   127.02162829     8.82449822
 O      3   1   2     1.308912808627   163.87071611    60.66422701
 B     13  12  10     1.364560907753    47.20236214     6.31897964
 H     15  13  12     1.205080785963   117.80488223   246.53029679

---------------------------
INTERNAL COORDINATES (A.U.)
---------------------------
 B      0   0   0     0.000000000000     0.00000000     0.00000000
 Si     1   0   0     9.154452960722     0.00000000     0.00000000
 B      1   2   0     3.177013373410    77.14995484     0.00000000
 O      1   2   3     2.544692863240    69.81829599   165.22581515
 H      2   1   3     2.802886593778   163.06900809    78.63420218
 S      1   2   3     3.354896368299   138.37527620   332.75685875
 Al     4   1   2     3.373687130608    84.26784209   355.55354939
 C      2   1   3     3.274770034723    46.95744567   158.79222764
 H      7   4   1     3.380845123112   126.80835548   289.33746394
 B      9   7   4     2.454842256054   110.55066188   164.79059244
 H      8   2   1     2.053494004260   130.08346423   203.01454341
 S     10   9   7     3.235129685706   114.39143047   232.48113545
 F     12  10   9     5.286815594797   127.02162829     8.82449822
 O      3   1   2     2.473486741487   163.87071611    60.66422701
 B     13  12  10     2.578646408709    47.20236214     6.31897964
 H     15  13  12     2.277272654720   117.80488223   246.53029679

---------------------
BASIS SET INFORMATION
---------------------
There are 8 groups of distinct atoms

 Group   1 Type B   : 8s4p1d contracted to 4s2p1d pattern {5111/31/1}
 Group   2 Type Si  : 10s7p1d contracted to 4s3p1d pattern {5311/511/1}
 Group   3 Type O   : 8s4p1d contracted to 4s2p1d pattern {5111/31/1}
 Group   4 Type H   : 4s contracted to 2s pattern {31}
 Group   5 Type S   : 10s7p1d contracted to 4s3p1d pattern {5311/511/1}
 Group   6 Type Al  : 10s7p1d contracted to 4s3p1d pattern {5311/511/1}
 Group   7 Type C   : 8s4p1d contracted to 4s2p1d pattern {5111/31/1}
 Group   8 Type F   : 8s4p1d contracted to 4s2p1d pattern {5111/31/1}

Atom   0B    basis set group =>   1
Atom   1Si   basis set group =>   2
Atom   2B    basis set group =>   1
Atom   3O    basis set group =>   3
Atom   4H    basis set group =>   4
Atom   5S    basis set group =>   5
Atom   6Al   basis set group =>   6
Atom   7C    basis set group =>   7
Atom   8H    basis set group =>   4
Atom   9B    basis set group =>   1
Atom  10H    basis set group =>   4
Atom  11S    basis set group =>   5
Atom  12F    basis set group =>   8
Atom  13O    basis set group =>   3
Atom  14B    basis set group =>   1
Atom  15H    basis set group =>   4
---------------------------------
AUXILIARY/J BASIS SET INFORMATION
---------------------------------
There are 8 groups of distinct atoms

 Group   1 Type B   : 12s5p4d2f1g contracted to 6s4p3d1f1g pattern {711111/2111/211/2/1}
 Group   2 Type Si  : 14s5p5d2f1g contracted to 8s4p3d1f1g pattern {71111111/2111/311/2/1}
 Group   3 Type O   : 12s5p4d2f1g contracted to 6s4p3d1f1g pattern {711111/2111/211/2/1}
 Group   4 Type H   : 5s2p1d contracted to 3s1p1d pattern {311/2/1}
 Group   5 Type S   : 14s5p5d2f1g contracted to 8s4p3d1f1g pattern {71111111/2111/311/2/1}
 Group   6 Type Al  : 14s5p5d2f1g contracted to 8s4p3d1f1g pattern {71111111/2111/311/2/1}
 Group   7 Type C   : 12s5p4d2f1g contracted to 6s4p3d1f1g pattern {711111/2111/211/2/1}
 Group   8 Type F   : 12s5p4d2f1g contracted to 6s4p3d1f1g pattern {711111/2111/211/2/1}

Atom   0B    basis set group =>   1
Atom   1Si   basis set group =>   2
Atom   2B    basis set group =>   1
Atom   3O    basis set group =>   3
Atom   4H    basis set group =>   4
Atom   5S    basis set group =>   5
Atom   6Al   basis set group =>   6
Atom   7C    basis set group =>   7
Atom   8H    basis set group =>   4
Atom   9B    basis set group =>   1
Atom  10H    basis set group =>   4
Atom  11S    basis set group =>   5
Atom  12F    basis set group =>   8
Atom  13O    basis set group =>   3
Atom  14B    basis set group =>   1
Atom  15H    basis set group =>   4


           ************************************************************
           *        Program running with 4 parallel MPI-processes     *
           *              working on a common directory               *
           ************************************************************
------------------------------------------------------------------------------
                           ORCA GTO INTEGRAL CALCULATION
                           -- RI-GTO INTEGRALS CHOSEN --
------------------------------------------------------------------------------
------------------------------------------------------------------------------
                   ___                                                        
                  /   \      - P O W E R E D   B Y -                         
                 /     \                                                     
                 |  |  |   _    _      __       _____    __    __             
                 |  |  |  | |  | |    /  \     |  _  \  |  |  /  |          
                  \  \/   | |  | |   /    \    | | | |  |  | /  /          
                 / \  \   | |__| |  /  /\  \   | |_| |  |  |/  /          
                |  |  |   |  __  | /  /__\  \  |    /   |      \           
                |  |  |   | |  | | |   __   |  |    \   |  |\   \          
                \     /   | |  | | |  |  |  |  | |\  \  |  | \   \       
                 \___/    |_|  |_| |__|  |__|  |_| \__\ |__|  \__/        
                                                                              
                      - O R C A' S   B I G   F R I E N D -                    
                                      &                                       
                       - I N T E G R A L  F E E D E R -                       
                                                                              
 v1 FN, 2020, v2 2021                                                         
------------------------------------------------------------------------------


Reading SHARK input file pbeh-3c.SHARKINP.tmp ... ok
----------------------
SHARK INTEGRAL PACKAGE
----------------------

Number of atoms                             ...     16
Number of basis functions                   ...    200
Number of shells                            ...     96
Maximum angular momentum                    ...      2
Integral batch strategy                     ... SHARK/LIBINT Hybrid
RI-J (if used) integral strategy            ... SPLIT-RIJ (Revised 2003 algorithm where possible)
Printlevel                                  ...      1
Contraction scheme used                     ... SEGMENTED contraction
Coulomb Range Separation                    ... NOT USED
Exchange Range Separation                   ... NOT USED
Finite Nucleus Model                        ... NOT USED
Auxiliary Coulomb fitting basis             ... AVAILABLE
   # of basis functions in Aux-J            ...    640
   # of shells in Aux-J                     ...    208
   Maximum angular momentum in Aux-J        ...      4
Auxiliary J/K fitting basis                 ... NOT available
Auxiliary Correlation fitting basis         ... NOT available
Auxiliary 'external' fitting basis          ... NOT available
Integral threshold                          ...     2.500000e-11
Primitive cut-off                           ...     2.500000e-12
Primitive pair pre-selection threshold      ...     2.500000e-12

Calculating pre-screening integrals         ... done (  0.1 sec) Dimension = 96
Organizing shell pair data                  ... done (  0.4 sec)
Shell pair information
Total number of shell pairs                 ...      4656
Shell pairs after pre-screening             ...      3772
Total number of primitive shell pairs       ...     18736
Primitive shell pairs kept                  ...      9863
          la=0 lb=0:   1168 shell pairs
          la=1 lb=0:   1328 shell pairs
          la=1 lb=1:    374 shell pairs
          la=2 lb=0:    530 shell pairs
          la=2 lb=1:    300 shell pairs
          la=2 lb=2:     72 shell pairs

Calculating one electron integrals          ... done (  0.0 sec)
Calculating RI/J V-Matrix + Cholesky decomp.... done (  0.6 sec)
Calculating Nuclear repulsion               ... done (  0.0 sec) ENN=    952.989558240805 Eh

SHARK setup successfully completed in   3.2 seconds

Maximum memory used throughout the entire GTOINT-calculation: 12.5 MB


           ************************************************************
           *        Program running with 4 parallel MPI-processes     *
           *              working on a common directory               *
           ************************************************************
-------------------------------------------------------------------------------
                                 ORCA SCF
-------------------------------------------------------------------------------

------------
SCF SETTINGS
------------
Hamiltonian:
 Density Functional     Method          .... DFT(GTOs)
 Exchange Functional    Exchange        .... PBE
   PBE kappa parameter   XKappa         ....  1.024500
   PBE mue parameter    XMuePBE         ....  0.123457
 Correlation Functional Correlation     .... PBE
   PBE beta parameter  CBetaPBE         ....  0.030000
 LDA part of GGA corr.  LDAOpt          .... PW91-LDA
 Gradients option       PostSCFGGA      .... off
 Hybrid DFT is turned on
   Fraction HF Exchange ScalHFX         ....  0.420000
   Scaling of DF-GGA-X  ScalDFX         ....  0.580000
   Scaling of DF-GGA-C  ScalDFC         ....  1.000000
   Scaling of DF-LDA-C  ScalLDAC        ....  1.000000
   Perturbative correction              ....  0.000000
   Density functional embedding theory  .... OFF
 RI-approximation to the Coulomb term is turned on
   Number of AuxJ basis functions       .... 640
   RIJ-ON(X) (HFX calculated with O(N)) .... on
   Number of AuxJ basis functions       .... 640
   RIJ-COSX (HFX calculated with COS-X)).... on


General Settings:
 Integral files         IntName         .... pbeh-3c
 Hartree-Fock type      HFTyp           .... RHF
 Total Charge           Charge          ....    0
 Multiplicity           Mult            ....    1
 Number of Electrons    NEL             ....  114
 Basis Dimension        Dim             ....  200
 Nuclear Repulsion      ENuc            ....    952.9895582408 Eh

Convergence Acceleration:
 DIIS                   CNVDIIS         .... on
   Start iteration      DIISMaxIt       ....    12
   Startup error        DIISStart       ....  0.200000
   # of expansion vecs  DIISMaxEq       ....     5
   Bias factor          DIISBfac        ....   1.050
   Max. coefficient     DIISMaxC        ....  10.000
 Trust-Rad. Augm. Hess. CNVTRAH         .... auto
   Auto Start mean grad. ratio tolernc. ....  1.125000
   Auto Start start iteration           ....    20
   Auto Start num. interpolation iter.  ....    10
   Max. Number of Micro iterations      ....    16
   Max. Number of Macro iterations      .... Maxiter - #DIIS iter
   Number of Davidson start vectors     ....     2
   Converg. threshold I  (grad. norm)   ....   1.000e-05
   Converg. threshold II (energy diff.) ....   1.000e-08
   Grad. Scal. Fac. for Micro threshold ....   0.100
   Minimum threshold for Micro iter.    ....   0.010
   NR start threshold (gradient norm)   ....   0.001
   Initial trust radius                 ....   0.400
   Minimum AH scaling param. (alpha)    ....   1.000
   Maximum AH scaling param. (alpha)    .... 1000.000
   Orbital update algorithm             .... Taylor
   White noise on init. David. guess    .... on
   Maximum white noise                  ....   0.010
   Quad. conv. algorithm                .... NR
   COSX micro iterations for RIJONX calc.... off
 SOSCF                  CNVSOSCF        .... on
   Start iteration      SOSCFMaxIt      ....   150
   Startup grad/error   SOSCFStart      ....  0.003300
 Level Shifting         CNVShift        .... on
   Level shift para.    LevelShift      ....    0.2500
   Turn off err/grad.   ShiftErr        ....    0.0010
 Zerner damping         CNVZerner       .... off
 Static damping         CNVDamp         .... on
   Fraction old density DampFac         ....    0.7000
   Max. Damping (<1)    DampMax         ....    0.9800
   Min. Damping (>=0)   DampMin         ....    0.0000
   Turn off err/grad.   DampErr         ....    0.1000
 Fernandez-Rico         CNVRico         .... off

SCF Procedure:
 Maximum # iterations   MaxIter         ....   125
 SCF integral mode      SCFMode         .... Direct
   Integral package                     .... SHARK and LIBINT hybrid scheme
 Reset frequency        DirectResetFreq ....    20
 Integral Threshold     Thresh          ....  2.500e-11 Eh
 Primitive CutOff       TCut            ....  2.500e-12 Eh

Convergence Tolerance:
 Convergence Check Mode ConvCheckMode   .... Total+1el-Energy
 Convergence forced     ConvForced      .... 0
 Energy Change          TolE            ....  1.000e-08 Eh
 1-El. energy change                    ....  1.000e-05 Eh
 Orbital Gradient       TolG            ....  1.000e-05
 Orbital Rotation angle TolX            ....  1.000e-05
 DIIS Error             TolErr          ....  5.000e-07


Diagonalization of the overlap matrix:
Smallest eigenvalue                        ... 3.520e-03
Time for diagonalization                   ...    0.013 sec
Threshold for overlap eigenvalues          ... 1.000e-08
Number of eigenvalues below threshold      ... 0
Time for construction of square roots      ...    0.267 sec
Total time needed                          ...    0.281 sec

--------------------------------
INITIAL GUESS: MINIMAL BASIS EHT
--------------------------------
The minimal basis has 80 functions
EHT matrix was diagonalized
Basis set overlap was calculated now projecting the orbitals
Using GuessMode=FMatrix for the initial guess
C*T matrix was formed
Effective Fockian was calculated
Effective Fockian was diagonalized
Initial density was built
                      ------------------
                      INITIAL GUESS DONE
                      ------------------
-------------------
DFT GRID GENERATION
-------------------

General Integration Accuracy     IntAcc      ... 4.959
Radial Grid Type                 RadialGrid  ... OptM3 with GC (2021)
Angular Grid (max. ang.)         AngularGrid ... 6 (Lebedev-590)
Angular grid pruning method      GridPruning ... 4 (adaptive)
Weight generation scheme         WeightScheme... Becke
Basis function cutoff            BFCut       ... 1.0000e-11
Integration weight cutoff        WCut        ... 1.0000e-14
Angular grids for H and He will be reduced by one unit
Partially contracted basis set               ... off
Rotationally invariant grid construction     ... off

Total number of grid points                  ...   212605
Total number of batches                      ...     3331
Average number of points per batch           ...       63
Average number of grid points per atom       ...    13288
Time for grid setup =    5.819 sec

--------------------
COSX GRID GENERATION
--------------------

GRIDX 1
-------
General Integration Accuracy     IntAcc      ... 4.020
Radial Grid Type                 RadialGrid  ... OptM3 with GC (2021)
Angular Grid (max. ang.)         AngularGrid ... 2 (Lebedev-110)
Angular grid pruning method      GridPruning ... 4 (adaptive)
Weight generation scheme         WeightScheme... Becke
Basis function cutoff            BFCut       ... 1.0000e-11
Integration weight cutoff        WCut        ... 1.0000e-14
Angular grids for H and He will be reduced by one unit
Partially contracted basis set               ... on
Rotationally invariant grid construction     ... off

Total number of grid points                  ...    25125
Total number of batches                      ...      400
Average number of points per batch           ...       62
Average number of grid points per atom       ...     1570
UseSFitting                                  ... on

GRIDX 2
-------
General Integration Accuracy     IntAcc      ... 4.338
Radial Grid Type                 RadialGrid  ... OptM3 with GC (2021)
Angular Grid (max. ang.)         AngularGrid ... 3 (Lebedev-194)
Angular grid pruning method      GridPruning ... 4 (adaptive)
Weight generation scheme         WeightScheme... Becke
Basis function cutoff            BFCut       ... 1.0000e-11
Integration weight cutoff        WCut        ... 1.0000e-14
Angular grids for H and He will be reduced by one unit
Partially contracted basis set               ... on
Rotationally invariant grid construction     ... off

Total number of grid points                  ...    57623
Total number of batches                      ...      908
Average number of points per batch           ...       63
Average number of grid points per atom       ...     3601
UseSFitting                                  ... on

GRIDX 3
-------
General Integration Accuracy     IntAcc      ... 4.871
Radial Grid Type                 RadialGrid  ... OptM3 with GC (2021)
Angular Grid (max. ang.)         AngularGrid ... 4 (Lebedev-302)
Angular grid pruning method      GridPruning ... 4 (adaptive)
Weight generation scheme         WeightScheme... Becke
Basis function cutoff            BFCut       ... 1.0000e-11
Integration weight cutoff        WCut        ... 1.0000e-14
Angular grids for H and He will be reduced by one unit
Partially contracted basis set               ... on
Rotationally invariant grid construction     ... off

Total number of grid points                  ...   103586
Total number of batches                      ...     1627
Average number of points per batch           ...       63
Average number of grid points per atom       ...     6474
UseSFitting                                  ... on

Time for X-Grid setup             =    6.602 sec

--------------
SCF ITERATIONS
--------------
ITER       Energy         Delta-E        Max-DP      RMS-DP      [F,P]     Damp
               ***  Starting incremental Fock matrix formation  ***
  0  -1713.2164271466   0.000000000000 0.24270311  0.00816592  0.6628021 0.7000
  1  -1714.3939165870  -1.177489440484 0.16282928  0.00438509  0.2720091 0.7000
                               ***Turning on DIIS***
  2  -1714.9756986180  -0.581782030919 0.09185206  0.00244067  0.1864193 0.7000
  3  -1715.3749784101  -0.399279792156 0.06665896  0.00178717  0.1277944 0.7000
  4  -1715.6635447620  -0.288566351918 0.16934204  0.00436643  0.0873857 0.0000
  5  -1716.3482278492  -0.684683087181 0.02497580  0.00049006  0.0204530 0.0000
  6  -1716.3501931992  -0.001965350021 0.00649308  0.00016838  0.0098323 0.0000
                      *** Initiating the SOSCF procedure ***
                           *** Shutting down DIIS ***
                      *** Re-Reading the Fockian *** 
                      *** Removing any level shift *** 
ITER      Energy       Delta-E        Grad      Rot      Max-DP    RMS-DP
  7  -1716.35069867  -0.0005054668  0.001469  0.001469  0.004770  0.000096
               *** Restarting incremental Fock matrix formation ***
  8  -1716.35079427  -0.0000956033  0.000859  0.004314  0.003851  0.000098
  9  -1716.35083849  -0.0000442217  0.000656  0.003695  0.002452  0.000087
 10  -1716.35085564  -0.0000171459  0.000308  0.001163  0.000971  0.000031
 11  -1716.35085981  -0.0000041757  0.000055  0.000163  0.000321  0.000007
 12  -1716.35085988  -0.0000000629  0.000054  0.000107  0.000118  0.000003
 13  -1716.35085998  -0.0000001029  0.000006  0.000020  0.000056  0.000001
 14  -1716.35085998   0.0000000018  0.000007  0.000014  0.000028  0.000000
                  ***Gradient check signals convergence***
              ***Rediagonalizing the Fockian in SOSCF/NRSCF***

               *****************************************************
               *                     SUCCESS                       *
               *           SCF CONVERGED AFTER  15 CYCLES          *
               *****************************************************

Old exchange energy                            =    -57.697101467 Eh
New exchange energy                            =    -57.697074247 Eh
Exchange energy change after final integration =      0.000027220 Eh
Total energy after final integration           =  -1716.350832760 Eh
Final COS-X integration done in                =     8.957 sec

----------------
TOTAL SCF ENERGY
----------------

Total Energy       :        -1716.35083276 Eh          -46704.28056 eV

Components:
Nuclear Repulsion  :          952.98955824 Eh           25932.16425 eV
Electronic Energy  :        -2669.34039100 Eh          -72636.44480 eV
One Electron Energy:        -4269.50294196 Eh         -116179.08148 eV
Two Electron Energy:         1600.16255096 Eh           43542.63668 eV
Max COSX asymmetry :            0.00000401 Eh               0.00011 eV

Virial components:
Potential Energy   :        -3427.59623125 Eh          -93269.63519 eV
Kinetic Energy     :         1711.24539849 Eh           46565.35463 eV
Virial Ratio       :            2.00298346


DFT components:
N(Alpha)           :       57.000000924012 electrons
N(Beta)            :       57.000000924012 electrons
N(Total)           :      114.000001848023 electrons
E(X)               :      -76.885580909448 Eh       
E(C)               :       -5.422916411020 Eh       
E(XC)              :      -82.308497320467 Eh       
DFET-embed. en.    :        0.000000000000 Eh       

---------------
SCF CONVERGENCE
---------------

  Last Energy change         ...   -3.4236e-09  Tolerance :   1.0000e-08
  Last MAX-Density change    ...    4.4409e-15  Tolerance :   1.0000e-07
  Last RMS-Density change    ...    6.6994e-17  Tolerance :   5.0000e-09
  Last Orbital Gradient      ...    1.4438e-06  Tolerance :   1.0000e-05
  Last Orbital Rotation      ...    4.4291e-06  Tolerance :   1.0000e-05

             **** THE GBW FILE WAS UPDATED (pbeh-3c.gbw) ****
             **** DENSITY pbeh-3c.scfp WAS UPDATED ****
             **** ENERGY FILE WAS UPDATED (pbeh-3c.en.tmp) ****
             **** THE GBW FILE WAS UPDATED (pbeh-3c.gbw) ****
             **** DENSITY pbeh-3c.scfp WAS UPDATED ****
----------------
ORBITAL ENERGIES
----------------

  NO   OCC          E(Eh)            E(eV) 
   0   2.0000     -89.617671     -2438.6208 
   1   2.0000     -89.589877     -2437.8645 
   2   2.0000     -66.780180     -1817.1811 
   3   2.0000     -56.689281     -1542.5938 
   4   2.0000     -25.051003      -681.6725 
   5   2.0000     -19.543793      -531.8137 
   6   2.0000     -19.524377      -531.2853 
   7   2.0000     -10.470785      -284.9245 
   8   2.0000      -8.258452      -224.7239 
   9   2.0000      -8.229971      -223.9489 
  10   2.0000      -7.060761      -192.1331 
  11   2.0000      -7.059389      -192.0957 
  12   2.0000      -7.036449      -191.4715 
  13   2.0000      -7.032839      -191.3733 
  14   2.0000      -6.146806      -167.2631 
  15   2.0000      -6.144860      -167.2101 
  16   2.0000      -6.144512      -167.2007 
  17   2.0000      -6.118078      -166.4814 
  18   2.0000      -6.117784      -166.4734 
  19   2.0000      -6.115403      -166.4086 
  20   2.0000      -5.560230      -151.3015 
  21   2.0000      -4.421329      -120.3105 
  22   2.0000      -3.854813      -104.8948 
  23   2.0000      -3.848973      -104.7359 
  24   2.0000      -3.848245      -104.7161 
  25   2.0000      -2.913476       -79.2797 
  26   2.0000      -2.910457       -79.1976 
  27   2.0000      -2.907037       -79.1045 
  28   2.0000      -1.280450       -34.8428 
  29   2.0000      -1.144547       -31.1447 
  30   2.0000      -1.140298       -31.0291 
  31   2.0000      -0.878620       -23.9085 
  32   2.0000      -0.824809       -22.4442 
  33   2.0000      -0.779487       -21.2109 
  34   2.0000      -0.661631       -18.0039 
  35   2.0000      -0.637419       -17.3450 
  36   2.0000      -0.605173       -16.4676 
  37   2.0000      -0.574484       -15.6325 
  38   2.0000      -0.559625       -15.2282 
  39   2.0000      -0.547446       -14.8968 
  40   2.0000      -0.525838       -14.3088 
  41   2.0000      -0.515227       -14.0200 
  42   2.0000      -0.506679       -13.7874 
  43   2.0000      -0.488599       -13.2954 
  44   2.0000      -0.481479       -13.1017 
  45   2.0000      -0.455432       -12.3929 
  46   2.0000      -0.453865       -12.3503 
  47   2.0000      -0.439707       -11.9650 
  48   2.0000      -0.416335       -11.3290 
  49   2.0000      -0.398844       -10.8531 
  50   2.0000      -0.384269       -10.4565 
  51   2.0000      -0.382366       -10.4047 
  52   2.0000      -0.361508        -9.8371 
  53   2.0000      -0.351818        -9.5735 
  54   2.0000      -0.330474        -8.9926 
  55   2.0000      -0.307000        -8.3539 
  56   2.0000      -0.298428        -8.1206 
  57   0.0000      -0.099646        -2.7115 
  58   0.0000      -0.078099        -2.1252 
  59   0.0000      -0.050736        -1.3806 
  60   0.0000      -0.035633        -0.9696 
  61   0.0000       0.023097         0.6285 
  62   0.0000       0.035383         0.9628 
  63   0.0000       0.041903         1.1402 
  64   0.0000       0.051104         1.3906 
  65   0.0000       0.077582         2.1111 
  66   0.0000       0.095280         2.5927 
  67   0.0000       0.098959         2.6928 
  68   0.0000       0.113430         3.0866 
  69   0.0000       0.125417         3.4128 
  70   0.0000       0.131059         3.5663 
  71   0.0000       0.159260         4.3337 
  72   0.0000       0.163232         4.4418 
  73   0.0000       0.185554         5.0492 
  74   0.0000       0.193734         5.2718 
  75   0.0000       0.214569         5.8387 
  76   0.0000       0.222856         6.0642 
  77   0.0000       0.227054         6.1785 
  78   0.0000       0.259773         7.0688 
  79   0.0000       0.264472         7.1967 
  80   0.0000       0.283948         7.7266 
  81   0.0000       0.294435         8.0120 
  82   0.0000       0.299043         8.1374 
  83   0.0000       0.317967         8.6523 
  84   0.0000       0.320065         8.7094 
  85   0.0000       0.331364         9.0169 
  86   0.0000       0.342610         9.3229 
  87   0.0000       0.366614         9.9761 
  88   0.0000       0.369942        10.0666 
  89   0.0000       0.378391        10.2965 
  90   0.0000       0.392801        10.6887 
  91   0.0000       0.405433        11.0324 
  92   0.0000       0.408963        11.1285 
  93   0.0000       0.428247        11.6532 
  94   0.0000       0.445004        12.1092 
  95   0.0000       0.470802        12.8112 
  96   0.0000       0.480406        13.0725 
  97   0.0000       0.494870        13.4661 
  98   0.0000       0.510983        13.9046 
  99   0.0000       0.540164        14.6986 
 100   0.0000       0.546394        14.8681 
 101   0.0000       0.556486        15.1427 
 102   0.0000       0.572355        15.5746 
 103   0.0000       0.573655        15.6099 
 104   0.0000       0.586920        15.9709 
 105   0.0000       0.595948        16.2166 
 106   0.0000       0.603251        16.4153 
 107   0.0000       0.613546        16.6954 
 108   0.0000       0.621929        16.9236 
 109   0.0000       0.658293        17.9131 
 110   0.0000       0.661568        18.0022 
 111   0.0000       0.679543        18.4913 
 112   0.0000       0.685630        18.6570 
 113   0.0000       0.688683        18.7400 
 114   0.0000       0.708018        19.2661 
 115   0.0000       0.719697        19.5840 
 116   0.0000       0.742934        20.2163 
 117   0.0000       0.751212        20.4415 
 118   0.0000       0.756363        20.5817 
 119   0.0000       0.771058        20.9816 
 120   0.0000       0.782357        21.2890 
 121   0.0000       0.802646        21.8411 
 122   0.0000       0.830263        22.5926 
 123   0.0000       0.845575        23.0093 
 124   0.0000       0.856947        23.3187 
 125   0.0000       0.876365        23.8471 
 126   0.0000       0.890884        24.2422 
 127   0.0000       0.893443        24.3118 
 128   0.0000       0.913800        24.8658 
 129   0.0000       0.944793        25.7091 
 130   0.0000       0.982779        26.7428 
 131   0.0000       1.017541        27.6887 
 132   0.0000       1.048095        28.5201 
 133   0.0000       1.053598        28.6699 
 134   0.0000       1.081283        29.4232 
 135   0.0000       1.093253        29.7489 
 136   0.0000       1.120474        30.4896 
 137   0.0000       1.140724        31.0407 
 138   0.0000       1.156542        31.4711 
 139   0.0000       1.173443        31.9310 
 140   0.0000       1.210788        32.9472 
 141   0.0000       1.232064        33.5262 
 142   0.0000       1.275911        34.7193 
 143   0.0000       1.290708        35.1219 
 144   0.0000       1.292403        35.1681 
 145   0.0000       1.326750        36.1027 
 146   0.0000       1.348055        36.6825 
 147   0.0000       1.365933        37.1689 
 148   0.0000       1.381134        37.5826 
 149   0.0000       1.408158        38.3179 
 150   0.0000       1.424108        38.7520 
 151   0.0000       1.442466        39.2515 
 152   0.0000       1.482306        40.3356 
 153   0.0000       1.572648        42.7939 
 154   0.0000       1.645049        44.7641 
 155   0.0000       1.679616        45.7047 
 156   0.0000       1.705058        46.3970 
 157   0.0000       1.737279        47.2738 
 158   0.0000       1.778061        48.3835 
 159   0.0000       1.801267        49.0150 
 160   0.0000       1.831728        49.8439 
 161   0.0000       1.865538        50.7639 
 162   0.0000       1.879735        51.1502 
 163   0.0000       1.908459        51.9318 
 164   0.0000       1.929372        52.5009 
 165   0.0000       1.942953        52.8704 
 166   0.0000       1.950461        53.0747 
 167   0.0000       1.959693        53.3259 
 168   0.0000       1.980165        53.8830 
 169   0.0000       2.015061        54.8326 
 170   0.0000       2.032958        55.3196 
 171   0.0000       2.065046        56.1928 
 172   0.0000       2.092422        56.9377 
 173   0.0000       2.122272        57.7500 
 174   0.0000       2.139727        58.2249 
 175   0.0000       2.156899        58.6922 
 176   0.0000       2.231546        60.7234 
 177   0.0000       2.232904        60.7604 
 178   0.0000       2.301091        62.6159 
 179   0.0000       2.307262        62.7838 
 180   0.0000       2.337259        63.6001 
 181   0.0000       2.411028        65.6074 
 182   0.0000       2.426323        66.0236 
 183   0.0000       2.460035        66.9410 
 184   0.0000       2.513793        68.4038 
 185   0.0000       2.615430        71.1695 
 186   0.0000       2.686294        73.0978 
 187   0.0000       2.801823        76.2415 
 188   0.0000       3.065186        83.4079 
 189   0.0000       3.129576        85.1601 
 190   0.0000       3.287336        89.4530 
 191   0.0000       3.384398        92.0941 
 192   0.0000       9.084185       247.1932 
 193   0.0000       9.146962       248.9015 
 194   0.0000       9.414917       256.1929 
 195   0.0000       9.532096       259.3815 
 196   0.0000      13.655566       371.5869 
 197   0.0000      25.581945       696.1201 
 198   0.0000      25.634667       697.5547 
 199   0.0000      32.846778       893.8063 

                    ********************************
                    * MULLIKEN POPULATION ANALYSIS *
                    ********************************

-----------------------
MULLIKEN ATOMIC CHARGES
-----------------------
   0 B :    0.292653
   1 Si:    0.439082
   2 B :    0.164333
   3 O :   -0.481543
   4 H :    0.028206
   5 S :   -0.182295
   6 Al:    0.903296
   7 C :   -0.763740
   8 H :   -0.055819
   9 B :   -0.152138
  10 H :    0.268297
  11 S :   -0.183574
  12 F :   -0.300617
  13 O :   -0.375402
  14 B :    0.442893
  15 H :   -0.043631
Sum of atomic charges:    0.0000000

--------------------------------
MULLIKEN REDUCED ORBITAL CHARGES
--------------------------------
  0 B s       :     2.814787  s :     2.814787
      pz      :     0.609295  p :     1.821184
      px      :     0.582557
      py      :     0.629333
      dz2     :     0.012937  d :     0.071375
      dxz     :     0.017999
      dyz     :     0.012666
      dx2y2   :     0.014891
      dxy     :     0.012883
  1 Sis       :     5.227354  s :     5.227354
      pz      :     2.673492  p :     8.140044
      px      :     2.760474
      py      :     2.706077
      dz2     :     0.028021  d :     0.193520
      dxz     :     0.036248
      dyz     :     0.032560
      dx2y2   :     0.042807
      dxy     :     0.053884
  2 B s       :     2.927312  s :     2.927312
      pz      :     0.557713  p :     1.839379
      px      :     0.689668
      py      :     0.591998
      dz2     :     0.010950  d :     0.068977
      dxz     :     0.010740
      dyz     :     0.016059
      dx2y2   :     0.016068
      dxy     :     0.015158
  3 O s       :     3.799982  s :     3.799982
      pz      :     1.534078  p :     4.660237
      px      :     1.504388
      py      :     1.621771
      dz2     :     0.006709  d :     0.021324
      dxz     :     0.005497
      dyz     :     0.004940
      dx2y2   :     0.002071
      dxy     :     0.002107
  4 H s       :     0.971794  s :     0.971794
  5 S s       :     5.890533  s :     5.890533
      pz      :     3.427804  p :    10.226892
      px      :     3.410389
      py      :     3.388699
      dz2     :     0.005322  d :     0.064869
      dxz     :     0.011613
      dyz     :     0.012806
      dx2y2   :     0.019618
      dxy     :     0.015510
  6 Als       :     4.815604  s :     4.815604
      pz      :     2.302943  p :     6.973162
      px      :     2.387888
      py      :     2.282331
      dz2     :     0.045420  d :     0.307939
      dxz     :     0.060012
      dyz     :     0.045755
      dx2y2   :     0.096812
      dxy     :     0.059940
  7 C s       :     3.398311  s :     3.398311
      pz      :     1.110007  p :     3.352982
      px      :     1.150581
      py      :     1.092394
      dz2     :     0.002594  d :     0.012447
      dxz     :     0.000897
      dyz     :     0.001774
      dx2y2   :     0.002174
      dxy     :     0.005008
  8 H s       :     1.055819  s :     1.055819
  9 B s       :     3.060345  s :     3.060345
      pz      :     0.644600  p :     2.064652
      px      :     0.826416
      py      :     0.593637
      dz2     :     0.006158  d :     0.027141
      dxz     :     0.006972
      dyz     :     0.005272
      dx2y2   :     0.004762
      dxy     :     0.003977
 10 H s       :     0.731703  s :     0.731703
 11 S s       :     5.877281  s :     5.877281
      pz      :     3.453883  p :    10.255148
      px      :     3.355342
      py      :     3.445924
      dz2     :     0.008342  d :     0.051146
      dxz     :     0.019262
      dyz     :     0.007600
      dx2y2   :     0.005916
      dxy     :     0.010025
 12 F s       :     3.891555  s :     3.891555
      pz      :     1.809643  p :     5.398716
      px      :     1.719954
      py      :     1.869119
      dz2     :     0.001875  d :     0.010346
      dxz     :     0.002843
      dyz     :     0.001400
      dx2y2   :     0.002393
      dxy     :     0.001834
 13 O s       :     3.721492  s :     3.721492
      pz      :     1.599219  p :     4.639184
      px      :     1.681967
      py      :     1.357998
      dz2     :     0.004018  d :     0.014727
      dxz     :     0.002867
      dyz     :     0.002763
      dx2y2   :     0.003052
      dxy     :     0.002027
 14 B s       :     2.794414  s :     2.794414
      pz      :     0.720767  p :     1.677186
      px      :     0.465308
      py      :     0.491111
      dz2     :     0.017996  d :     0.085507
      dxz     :     0.015844
      dyz     :     0.012778
      dx2y2   :     0.022748
      dxy     :     0.016139
 15 H s       :     1.043631  s :     1.043631


                     *******************************
                     * LOEWDIN POPULATION ANALYSIS *
                     *******************************

----------------------
LOEWDIN ATOMIC CHARGES
----------------------
   0 B :   -0.125639
   1 Si:    0.425886
   2 B :   -0.040557
   3 O :   -0.213725
   4 H :    0.009062
   5 S :    0.229835
   6 Al:    0.534253
   7 C :   -0.526146
   8 H :    0.064777
   9 B :   -0.377707
  10 H :    0.175058
  11 S :    0.203308
  12 F :   -0.192156
  13 O :   -0.161270
  14 B :    0.034069
  15 H :   -0.039048

-------------------------------
LOEWDIN REDUCED ORBITAL CHARGES
-------------------------------
  0 B s       :     2.685926  s :     2.685926
      pz      :     0.734191  p :     2.278459
      px      :     0.769755
      py      :     0.774512
      dz2     :     0.028349  d :     0.161255
      dxz     :     0.043758
      dyz     :     0.026924
      dx2y2   :     0.030312
      dxy     :     0.031911
  1 Sis       :     4.969089  s :     4.969089
      pz      :     2.692113  p :     8.328020
      px      :     2.861365
      py      :     2.774542
      dz2     :     0.036196  d :     0.277004
      dxz     :     0.047446
      dyz     :     0.051349
      dx2y2   :     0.069732
      dxy     :     0.072281
  2 B s       :     2.714274  s :     2.714274
      pz      :     0.648800  p :     2.177050
      px      :     0.777131
      py      :     0.751120
      dz2     :     0.022653  d :     0.149233
      dxz     :     0.023626
      dyz     :     0.035862
      dx2y2   :     0.034048
      dxy     :     0.033044
  3 O s       :     3.476268  s :     3.476268
      pz      :     1.574136  p :     4.703078
      px      :     1.524906
      py      :     1.604036
      dz2     :     0.008053  d :     0.034379
      dxz     :     0.011096
      dyz     :     0.007106
      dx2y2   :     0.004139
      dxy     :     0.003986
  4 H s       :     0.990938  s :     0.990938
  5 S s       :     5.552306  s :     5.552306
      pz      :     3.385821  p :    10.139440
      px      :     3.398771
      py      :     3.354848
      dz2     :     0.008046  d :     0.078419
      dxz     :     0.012921
      dyz     :     0.013723
      dx2y2   :     0.020580
      dxy     :     0.023149
  6 Als       :     4.623667  s :     4.623667
      pz      :     2.381486  p :     7.342919
      px      :     2.560889
      py      :     2.400544
      dz2     :     0.069402  d :     0.499161
      dxz     :     0.090875
      dyz     :     0.090693
      dx2y2   :     0.152978
      dxy     :     0.095213
  7 C s       :     3.027044  s :     3.027044
      pz      :     1.126519  p :     3.475253
      px      :     1.187717
      py      :     1.161017
      dz2     :     0.003456  d :     0.023849
      dxz     :     0.001705
      dyz     :     0.004172
      dx2y2   :     0.005898
      dxy     :     0.008618
  8 H s       :     0.935223  s :     0.935223
  9 B s       :     2.856909  s :     2.856909
      pz      :     0.791843  p :     2.465316
      px      :     1.009339
      py      :     0.664134
      dz2     :     0.013339  d :     0.055482
      dxz     :     0.014752
      dyz     :     0.009944
      dx2y2   :     0.009886
      dxy     :     0.007561
 10 H s       :     0.824942  s :     0.824942
 11 S s       :     5.544807  s :     5.544807
      pz      :     3.472049  p :    10.190631
      px      :     3.308836
      py      :     3.409746
      dz2     :     0.008756  d :     0.061253
      dxz     :     0.024673
      dyz     :     0.008604
      dx2y2   :     0.007371
      dxy     :     0.011850
 12 F s       :     3.705301  s :     3.705301
      pz      :     1.828276  p :     5.441658
      px      :     1.748949
      py      :     1.864433
      dz2     :     0.009757  d :     0.045197
      dxz     :     0.012580
      dyz     :     0.004310
      dx2y2   :     0.009939
      dxy     :     0.008611
 13 O s       :     3.404099  s :     3.404099
      pz      :     1.617582  p :     4.723965
      px      :     1.672925
      py      :     1.433458
      dz2     :     0.004902  d :     0.033206
      dxz     :     0.005288
      dyz     :     0.009981
      dx2y2   :     0.007114
      dxy     :     0.005920
 14 B s       :     2.731583  s :     2.731583
      pz      :     0.819247  p :     2.041587
      px      :     0.591640
      py      :     0.630701
      dz2     :     0.041500  d :     0.192761
      dxz     :     0.034567
      dyz     :     0.026360
      dx2y2   :     0.053340
      dxy     :     0.036994
 15 H s       :     1.039048  s :     1.039048


                      *****************************
                      * MAYER POPULATION ANALYSIS *
                      *****************************

  NA   - Mulliken gross atomic population
  ZA   - Total nuclear charge
  QA   - Mulliken gross atomic charge
  VA   - Mayer's total valence
  BVA  - Mayer's bonded valence
  FA   - Mayer's free valence

  ATOM       NA         ZA         QA         VA         BVA        FA
  0 B      4.7073     5.0000     0.2927     3.4975     3.4975    -0.0000
  1 Si    13.5609    14.0000     0.4391     3.7336     3.7336     0.0000
  2 B      4.8357     5.0000     0.1643     3.4893     3.4893     0.0000
  3 O      8.4815     8.0000    -0.4815     2.2480     2.2480     0.0000
  4 H      0.9718     1.0000     0.0282     0.9862     0.9862    -0.0000
  5 S     16.1823    16.0000    -0.1823     2.4042     2.4042     0.0000
  6 Al    12.0967    13.0000     0.9033     3.0524     3.0524     0.0000
  7 C      6.7637     6.0000    -0.7637     3.7240     3.7240    -0.0000
  8 H      1.0558     1.0000    -0.0558     0.9514     0.9514    -0.0000
  9 B      5.1521     5.0000    -0.1521     3.5762     3.5762     0.0000
 10 H      0.7317     1.0000     0.2683     0.9003     0.9003    -0.0000
 11 S     16.1836    16.0000    -0.1836     2.4395     2.4395     0.0000
 12 F      9.3006     9.0000    -0.3006     1.1324     1.1324    -0.0000
 13 O      8.3754     8.0000    -0.3754     2.3169     2.3169     0.0000
 14 B      4.5571     5.0000     0.4429     3.3853     3.3853     0.0000
 15 H      1.0436     1.0000    -0.0436     0.9511     0.9511     0.0000

  Mayer bond orders larger than 0.100000
B(  0-B ,  2-B ) :   0.7576 B(  0-B ,  3-O ) :   1.2638 B(  0-B ,  5-S ) :   1.2077 
B(  0-B ,  6-Al) :   0.2478 B(  1-Si,  4-H ) :   0.9334 B(  1-Si,  6-Al) :   0.1338 
B(  1-Si,  7-C ) :   1.6618 B(  1-Si,  9-B ) :   0.9637 B(  2-B ,  5-S ) :   0.9733 
B(  2-B ,  6-Al) :   0.1969 B(  2-B , 13-O ) :   1.4808 B(  3-O ,  6-Al) :   0.8270 
B(  6-Al,  7-C ) :   1.0494 B(  6-Al,  8-H ) :   0.3102 B(  6-Al,  9-B ) :   0.1382 
B(  7-C , 10-H ) :   0.8806 B(  8-H ,  9-B ) :   0.6103 B(  9-B , 11-S ) :   1.7442 
B( 11-S , 14-B ) :   0.5562 B( 12-F , 14-B ) :   1.0993 B( 13-O , 14-B ) :   0.7424 
B( 14-B , 15-H ) :   0.9231 

-------
TIMINGS
-------

Total SCF time: 0 days 0 hours 3 min 32 sec 

Total time                  ....     212.414 sec
Sum of individual times     ....     200.533 sec  ( 94.4%)

Fock matrix formation       ....     173.233 sec  ( 81.6%)
  Split-RI-J                ....      18.149 sec  ( 10.5% of F)
  Chain of spheres X        ....      93.494 sec  ( 54.0% of F)
  XC integration            ....      36.263 sec  ( 20.9% of F)
    Basis function eval.    ....       7.418 sec  ( 20.5% of XC)
    Density eval.           ....       4.588 sec  ( 12.7% of XC)
    XC-Functional eval.     ....       2.445 sec  (  6.7% of XC)
    XC-Potential eval.      ....       3.056 sec  (  8.4% of XC)
Diagonalization             ....       3.033 sec  (  1.4%)
Density matrix formation    ....       0.216 sec  (  0.1%)
Population analysis         ....       0.760 sec  (  0.4%)
Initial guess               ....       0.032 sec  (  0.0%)
Orbital Transformation      ....       0.000 sec  (  0.0%)
Orbital Orthonormalization  ....       0.000 sec  (  0.0%)
DIIS solution               ....       6.723 sec  (  3.2%)
SOSCF solution              ....       4.117 sec  (  1.9%)
Grid generation             ....      12.420 sec  (  5.8%)

Maximum memory used throughout the entire SCF-calculation: 61.2 MB


-------------------------------------------------------------------------------
                          DFT DISPERSION CORRECTION                            
                                                                               
                              DFTD3 V3.1  Rev 1                                
                          USING Becke-Johnson damping                          
-------------------------------------------------------------------------------
The PBEh-3c composite method is recognized
Using three-body term ABC
Active option DFTDOPT                   ...         4   

molecular C6(AA) [au] = 8057.887572 


            DFT-D V3
 parameters
 s6 scaling factor         :     1.0000 
 a1 scaling factor         :     0.4860 
 s8 scaling factor         :     0.0000 
 a2 scaling factor         :     4.5000 
 Damping factor alpha9(ATM):    16.0000 
 ad hoc parameters k1-k3   :    16.0000     1.3333    -4.0000 

 Edisp/kcal,au: -6.952145331551  -0.011078947613 
 E6   /kcal   :  -6.983020034 
 E8   /kcal   :  -0.000000000 
 E6(ABC)      :   0.030874703 
 % E8         :   0.000000000 
 % E6(ABC)    :  -0.444103241 

-------------------------   ----------------
Dispersion correction           -0.011078948
-------------------------   ----------------

------------------   -----------------
gCP correction             0.023067640
------------------   -----------------

-------------------------   --------------------
FINAL SINGLE POINT ENERGY     -1716.338844067820
-------------------------   --------------------


                            ***************************************
                            *     ORCA property calculations      *
                            ***************************************

                                    ---------------------
                                    Active property flags
                                    ---------------------
   (+) Dipole Moment


------------------------------------------------------------------------------
                       ORCA ELECTRIC PROPERTIES CALCULATION
------------------------------------------------------------------------------

Dipole Moment Calculation                       ... on
Quadrupole Moment Calculation                   ... off
Polarizability Calculation                      ... off
GBWName                                         ... pbeh-3c.gbw
Electron density                                ... pbeh-3c.scfp
The origin for moment calculation is the CENTER OF MASS  = ( 0.666128, -0.355803 -0.190984)

-------------
DIPOLE MOMENT
-------------
                                X             Y             Z
Electronic contribution:      7.25294      -2.52946      -0.22486
Nuclear contribution   :     -9.49507       2.26508       0.83378
                        -----------------------------------------
Total Dipole Moment    :     -2.24213      -0.26438       0.60892
                        -----------------------------------------
Magnitude (a.u.)       :      2.33833
Magnitude (Debye)      :      5.94357



--------------------
Rotational spectrum 
--------------------
 
Rotational constants in cm-1:     0.020308     0.017807     0.009930 
Rotational constants in MHz :   608.830531   533.833425   297.708825 

 Dipole components along the rotational axes: 
x,y,z [a.u.] :    -1.309140    -1.936343    -0.067341 
x,y,z [Debye]:    -3.327569    -4.921793    -0.171166 

 

Timings for individual modules:

Sum of individual times         ...      217.850 sec (=   3.631 min)
GTO integral calculation        ...        4.097 sec (=   0.068 min)   1.9 %
SCF iterations                  ...      213.754 sec (=   3.563 min)  98.1 %
                             ****ORCA TERMINATED NORMALLY****
TOTAL RUN TIME: 0 days 0 hours 3 minutes 41 seconds 186 msec
