
                                 *****************
                                 * O   R   C   A *
                                 *****************

                                            #,                                       
                                            ###                                      
                                            ####                                     
                                            #####                                    
                                            ######                                   
                                           ########,                                 
                                     ,,################,,,,,                         
                               ,,#################################,,                 
                          ,,##########################################,,             
                       ,#########################################, ''#####,          
                    ,#############################################,,   '####,        
                  ,##################################################,,,,####,       
                ,###########''''           ''''###############################       
              ,#####''   ,,,,##########,,,,          '''####'''          '####       
            ,##' ,,,,###########################,,,                        '##       
           ' ,,###''''                  '''############,,,                           
         ,,##''                                '''############,,,,        ,,,,,,###''
      ,#''                                            '''#######################'''  
     '                                                          ''''####''''         
             ,#######,   #######,   ,#######,      ##                                
            ,#'     '#,  ##    ##  ,#'     '#,    #''#        ######   ,####,        
            ##       ##  ##   ,#'  ##            #'  '#       #        #'  '#        
            ##       ##  #######   ##           ,######,      #####,   #    #        
            '#,     ,#'  ##    ##  '#,     ,#' ,#      #,         ##   #,  ,#        
             '#######'   ##     ##  '#######'  #'      '#     #####' # '####'        



                  #######################################################
                  #                        -***-                        #
                  #          Department of theory and spectroscopy      #
                  #    Directorship and core code : Frank Neese         #
                  #        Max Planck Institute fuer Kohlenforschung    #
                  #                Kaiser Wilhelm Platz 1               #
                  #                 D-45470 Muelheim/Ruhr               #
                  #                      Germany                        #
                  #                                                     #
                  #                  All rights reserved                #
                  #                        -***-                        #
                  #######################################################


                         Program Version 5.0.3 -  RELEASE  -


 With contributions from (in alphabetic order):
   Daniel Aravena         : Magnetic Suceptibility
   Michael Atanasov       : Ab Initio Ligand Field Theory (pilot matlab implementation)
   Alexander A. Auer      : GIAO ZORA, VPT2 properties, NMR spectrum
   Ute Becker             : Parallelization
   Giovanni Bistoni       : ED, misc. LED, open-shell LED, HFLD
   Martin Brehm           : Molecular dynamics
   Dmytro Bykov           : SCF Hessian
   Vijay G. Chilkuri      : MRCI spin determinant printing, contributions to CSF-ICE
   Dipayan Datta          : RHF DLPNO-CCSD density
   Achintya Kumar Dutta   : EOM-CC, STEOM-CC
   Dmitry Ganyushin       : Spin-Orbit,Spin-Spin,Magnetic field MRCI
   Miquel Garcia          : C-PCM and meta-GGA Hessian, CC/C-PCM, Gaussian charge scheme
   Yang Guo               : DLPNO-NEVPT2, F12-NEVPT2, CIM, IAO-localization
   Andreas Hansen         : Spin unrestricted coupled pair/coupled cluster methods
   Benjamin Helmich-Paris : MC-RPA, TRAH-SCF, COSX integrals
   Lee Huntington         : MR-EOM, pCC
   Robert Izsak           : Overlap fitted RIJCOSX, COSX-SCS-MP3, EOM
   Marcus Kettner         : VPT2
   Christian Kollmar      : KDIIS, OOCD, Brueckner-CCSD(T), CCSD density, CASPT2, CASPT2-K
   Simone Kossmann        : Meta GGA functionals, TD-DFT gradient, OOMP2, MP2 Hessian
   Martin Krupicka        : Initial AUTO-CI
   Lucas Lang             : DCDCAS
   Marvin Lechner         : AUTO-CI (C++ implementation), FIC-MRCC
   Dagmar Lenk            : GEPOL surface, SMD
   Dimitrios Liakos       : Extrapolation schemes; Compound Job, initial MDCI parallelization
   Dimitrios Manganas     : Further ROCIS development; embedding schemes
   Dimitrios Pantazis     : SARC Basis sets
   Anastasios Papadopoulos: AUTO-CI, single reference methods and gradients
   Taras Petrenko         : DFT Hessian,TD-DFT gradient, ASA, ECA, R-Raman, ABS, FL, XAS/XES, NRVS
   Peter Pinski           : DLPNO-MP2, DLPNO-MP2 Gradient
   Christoph Reimann      : Effective Core Potentials
   Marius Retegan         : Local ZFS, SOC
   Christoph Riplinger    : Optimizer, TS searches, QM/MM, DLPNO-CCSD(T), (RO)-DLPNO pert. Triples
   Tobias Risthaus        : Range-separated hybrids, TD-DFT gradient, RPA, STAB
   Michael Roemelt        : Original ROCIS implementation
   Masaaki Saitow         : Open-shell DLPNO-CCSD energy and density
   Barbara Sandhoefer     : DKH picture change effects
   Avijit Sen             : IP-ROCIS
   Kantharuban Sivalingam : CASSCF convergence, NEVPT2, FIC-MRCI
   Bernardo de Souza      : ESD, SOC TD-DFT
   Georgi Stoychev        : AutoAux, RI-MP2 NMR, DLPNO-MP2 response
   Willem Van den Heuvel  : Paramagnetic NMR
   Boris Wezisla          : Elementary symmetry handling
   Frank Wennmohs         : Technical directorship


 We gratefully acknowledge several colleagues who have allowed us to
 interface, adapt or use parts of their codes:
   Stefan Grimme, W. Hujo, H. Kruse, P. Pracht,  : VdW corrections, initial TS optimization,
                  C. Bannwarth, S. Ehlert          DFT functionals, gCP, sTDA/sTD-DF
   Ed Valeev, F. Pavosevic, A. Kumar             : LibInt (2-el integral package), F12 methods
   Garnet Chan, S. Sharma, J. Yang, R. Olivares  : DMRG
   Ulf Ekstrom                                   : XCFun DFT Library
   Mihaly Kallay                                 : mrcc  (arbitrary order and MRCC methods)
   Jiri Pittner, Ondrej Demel                    : Mk-CCSD
   Frank Weinhold                                : gennbo (NPA and NBO analysis)
   Christopher J. Cramer and Donald G. Truhlar   : smd solvation model
   Lars Goerigk                                  : TD-DFT with DH, B97 family of functionals
   V. Asgeirsson, H. Jonsson                     : NEB implementation
   FAccTs GmbH                                   : IRC, NEB, NEB-TS, DLPNO-Multilevel, CI-OPT
                                                   MM, QMMM, 2- and 3-layer-ONIOM, Crystal-QMMM,
                                                   LR-CPCM, SF, NACMEs, symmetry and pop. for TD-DFT,
                                                   nearIR, NL-DFT gradient (VV10), updates on ESD,
                                                   ML-optimized integration grids
   S Lehtola, MJT Oliveira, MAL Marques          : LibXC Library
   Liviu Ungur et al                             : ANISO software


 Your calculation uses the libint2 library for the computation of 2-el integrals
 For citations please refer to: http://libint.valeyev.net

 Your ORCA version has been built with support for libXC version: 5.1.0
 For citations please refer to: https://tddft.org/programs/libxc/

 This ORCA versions uses:
   CBLAS   interface :  Fast vector & matrix operations
   LAPACKE interface :  Fast linear algebra routines
   SCALAPACK package :  Parallel linear algebra routines
   Shared memory     :  Shared parallel matrices
   BLAS/LAPACK       :  OpenBLAS 0.3.15  USE64BITINT DYNAMIC_ARCH NO_AFFINITY Haswell SINGLE_THREADED
        Core in use  :  Haswell
   Copyright (c) 2011-2014, The OpenBLAS Project




***************************************
The coordinates will be read from file: N3P3H12_1.xyz
***************************************


Your calculation utilizes the geometrical counterpoise correction gCP
Please cite in your paper:
H.Kruse, S. Grimme J.Chem.Phys., 136, (2012), 154101 
   

Your calculation utilizes the atom-pairwise dispersion correction
with the Becke-Johnson damping scheme (D3BJ)
Cite in your paper:
S.Grimme, S.Ehrlich, L.Goerigk, J Comput Chem, (2011), 32, 1456–1465 
S.Grimme, J.Antony, S.Ehrlich and H.Krieg, J.Chem.Phys., 132, (2010), 154104 
   

Your calculation employs the composite approach PBEh-3c.
Please cite in your paper:
S. Grimme, J. G. Brandenburg, C. Bannwarth, A. Hansen J.Chem.Phys., 143, (2015), 054107 
   

================================================================================

----- Orbital basis set information -----
Your calculation utilizes the basis: def2-mSVP

----- AuxJ basis set information -----
Your calculation utilizes the auxiliary basis: def2/J
   F. Weigend, Phys. Chem. Chem. Phys. 8, 1057 (2006).

================================================================================
                                        WARNINGS
                       Please study these warnings very carefully!
================================================================================


INFO   : the flag for use of the SHARK integral package has been found!

================================================================================
                                       INPUT FILE
================================================================================
NAME = pbeh-3c.inp
|  1> ! PBEh-3c def2/J TightSCF DefGrid3
|  2> 
|  3> %maxcore 60000
|  4> 
|  5> %pal
|  6> nprocs 4
|  7> end
|  8> 
|  9> *xyzfile 0 1 N3P3H12_1.xyz
| 10> 
| 11>                          ****END OF INPUT****
================================================================================

                       ****************************
                       * Single Point Calculation *
                       ****************************

---------------------------------
CARTESIAN COORDINATES (ANGSTROEM)
---------------------------------
  N     -0.793284   -1.374008   -0.320364
  P     -1.768980    0.000000    0.037274
  N     -0.793284    1.374008   -0.320364
  P      0.884490    1.531982    0.037274
  N      1.586567    0.000000   -0.320364
  P      0.884490   -1.531982    0.037274
  H     -1.086686   -1.882195   -1.141155
  H     -1.474920    0.000000    1.424246
  H     -1.086686    1.882195   -1.141155
  H      0.737460    1.277318    1.424246
  H      2.173372    0.000000   -1.141155
  H      0.737460   -1.277318    1.424246

----------------------------
CARTESIAN COORDINATES (A.U.)
----------------------------
  NO LB      ZA    FRAG     MASS         X           Y           Z
   0 N     7.0000    0    14.007   -1.499089   -2.596498   -0.605401
   1 P    15.0000    0    30.974   -3.342888    0.000000    0.070438
   2 N     7.0000    0    14.007   -1.499089    2.596498   -0.605401
   3 P    15.0000    0    30.974    1.671444    2.895026    0.070438
   4 N     7.0000    0    14.007    2.998178    0.000000   -0.605401
   5 P    15.0000    0    30.974    1.671444   -2.895026    0.070438
   6 H     1.0000    0     1.008   -2.053539   -3.556833   -2.156471
   7 H     1.0000    0     1.008   -2.787195    0.000000    2.691434
   8 H     1.0000    0     1.008   -2.053539    3.556833   -2.156471
   9 H     1.0000    0     1.008    1.393598    2.413782    2.691434
  10 H     1.0000    0     1.008    4.107077    0.000000   -2.156471
  11 H     1.0000    0     1.008    1.393598   -2.413782    2.691434

--------------------------------
INTERNAL COORDINATES (ANGSTROEM)
--------------------------------
 N      0   0   0     0.000000000000     0.00000000     0.00000000
 P      1   0   0     1.722726394971     0.00000000     0.00000000
 N      2   1   0     1.722726394971   105.79875542     0.00000000
 P      3   2   1     1.722726356712   125.56521030   319.33329407
 N      4   3   2     1.722726354635   105.79875539    40.66670619
 P      5   4   3     1.722726354635   125.56521223   319.33329235
 H      1   2   3     1.008978433110   113.94737470   250.95075800
 H      2   1   3     1.417801469470    94.91157041   263.47584281
 H      3   2   1     1.008978433110   113.94737470   109.04924200
 H      4   3   2     1.417801471630    94.91156890   304.14254780
 H      5   4   3     1.008978434108   113.94737778   109.04924104
 H      6   5   4     1.417801471630    94.91157200   304.14255159

---------------------------
INTERNAL COORDINATES (A.U.)
---------------------------
 N      0   0   0     0.000000000000     0.00000000     0.00000000
 P      1   0   0     3.255481090173     0.00000000     0.00000000
 N      2   1   0     3.255481090173   105.79875542     0.00000000
 P      3   2   1     3.255481017873   125.56521030   319.33329407
 N      4   3   2     3.255481013949   105.79875539    40.66670619
 P      5   4   3     3.255481013949   125.56521223   319.33329235
 H      1   2   3     1.906692913611   113.94737470   250.95075800
 H      2   1   3     2.679256489569    94.91157041   263.47584281
 H      3   2   1     1.906692913611   113.94737470   109.04924200
 H      4   3   2     2.679256493651    94.91156890   304.14254780
 H      5   4   3     1.906692915498   113.94737778   109.04924104
 H      6   5   4     2.679256493651    94.91157200   304.14255159

---------------------
BASIS SET INFORMATION
---------------------
There are 3 groups of distinct atoms

 Group   1 Type N   : 8s4p1d contracted to 4s2p1d pattern {5111/31/1}
 Group   2 Type P   : 10s7p1d contracted to 4s3p1d pattern {5311/511/1}
 Group   3 Type H   : 4s contracted to 2s pattern {31}

Atom   0N    basis set group =>   1
Atom   1P    basis set group =>   2
Atom   2N    basis set group =>   1
Atom   3P    basis set group =>   2
Atom   4N    basis set group =>   1
Atom   5P    basis set group =>   2
Atom   6H    basis set group =>   3
Atom   7H    basis set group =>   3
Atom   8H    basis set group =>   3
Atom   9H    basis set group =>   3
Atom  10H    basis set group =>   3
Atom  11H    basis set group =>   3
---------------------------------
AUXILIARY/J BASIS SET INFORMATION
---------------------------------
There are 3 groups of distinct atoms

 Group   1 Type N   : 12s5p4d2f1g contracted to 6s4p3d1f1g pattern {711111/2111/211/2/1}
 Group   2 Type P   : 14s5p5d2f1g contracted to 8s4p3d1f1g pattern {71111111/2111/311/2/1}
 Group   3 Type H   : 5s2p1d contracted to 3s1p1d pattern {311/2/1}

Atom   0N    basis set group =>   1
Atom   1P    basis set group =>   2
Atom   2N    basis set group =>   1
Atom   3P    basis set group =>   2
Atom   4N    basis set group =>   1
Atom   5P    basis set group =>   2
Atom   6H    basis set group =>   3
Atom   7H    basis set group =>   3
Atom   8H    basis set group =>   3
Atom   9H    basis set group =>   3
Atom  10H    basis set group =>   3
Atom  11H    basis set group =>   3


           ************************************************************
           *        Program running with 4 parallel MPI-processes     *
           *              working on a common directory               *
           ************************************************************
------------------------------------------------------------------------------
                           ORCA GTO INTEGRAL CALCULATION
                           -- RI-GTO INTEGRALS CHOSEN --
------------------------------------------------------------------------------
------------------------------------------------------------------------------
                   ___                                                        
                  /   \      - P O W E R E D   B Y -                         
                 /     \                                                     
                 |  |  |   _    _      __       _____    __    __             
                 |  |  |  | |  | |    /  \     |  _  \  |  |  /  |          
                  \  \/   | |  | |   /    \    | | | |  |  | /  /          
                 / \  \   | |__| |  /  /\  \   | |_| |  |  |/  /          
                |  |  |   |  __  | /  /__\  \  |    /   |      \           
                |  |  |   | |  | | |   __   |  |    \   |  |\   \          
                \     /   | |  | | |  |  |  |  | |\  \  |  | \   \       
                 \___/    |_|  |_| |__|  |__|  |_| \__\ |__|  \__/        
                                                                              
                      - O R C A' S   B I G   F R I E N D -                    
                                      &                                       
                       - I N T E G R A L  F E E D E R -                       
                                                                              
 v1 FN, 2020, v2 2021                                                         
------------------------------------------------------------------------------


Reading SHARK input file pbeh-3c.SHARKINP.tmp ... ok
----------------------
SHARK INTEGRAL PACKAGE
----------------------

Number of atoms                             ...     12
Number of basis functions                   ...    111
Number of shells                            ...     57
Maximum angular momentum                    ...      2
Integral batch strategy                     ... SHARK/LIBINT Hybrid
RI-J (if used) integral strategy            ... SPLIT-RIJ (Revised 2003 algorithm where possible)
Printlevel                                  ...      1
Contraction scheme used                     ... SEGMENTED contraction
Coulomb Range Separation                    ... NOT USED
Exchange Range Separation                   ... NOT USED
Finite Nucleus Model                        ... NOT USED
Auxiliary Coulomb fitting basis             ... AVAILABLE
   # of basis functions in Aux-J            ...    366
   # of shells in Aux-J                     ...    126
   Maximum angular momentum in Aux-J        ...      4
Auxiliary J/K fitting basis                 ... NOT available
Auxiliary Correlation fitting basis         ... NOT available
Auxiliary 'external' fitting basis          ... NOT available
Integral threshold                          ...     2.500000e-11
Primitive cut-off                           ...     2.500000e-12
Primitive pair pre-selection threshold      ...     2.500000e-12

Calculating pre-screening integrals         ... done (  0.1 sec) Dimension = 57
Organizing shell pair data                  ... done (  0.4 sec)
Shell pair information
Total number of shell pairs                 ...      1653
Shell pairs after pre-screening             ...      1563
Total number of primitive shell pairs       ...      7029
Primitive shell pairs kept                  ...      4671
          la=0 lb=0:    606 shell pairs
          la=1 lb=0:    516 shell pairs
          la=1 lb=1:    117 shell pairs
          la=2 lb=0:    213 shell pairs
          la=2 lb=1:     90 shell pairs
          la=2 lb=2:     21 shell pairs

Calculating one electron integrals          ... done (  0.0 sec)
Calculating RI/J V-Matrix + Cholesky decomp.... done (  0.7 sec)
Calculating Nuclear repulsion               ... done (  0.1 sec) ENN=    478.789517064973 Eh

SHARK setup successfully completed in   3.1 seconds

Maximum memory used throughout the entire GTOINT-calculation: 10.4 MB


           ************************************************************
           *        Program running with 4 parallel MPI-processes     *
           *              working on a common directory               *
           ************************************************************
-------------------------------------------------------------------------------
                                 ORCA SCF
-------------------------------------------------------------------------------

------------
SCF SETTINGS
------------
Hamiltonian:
 Density Functional     Method          .... DFT(GTOs)
 Exchange Functional    Exchange        .... PBE
   PBE kappa parameter   XKappa         ....  1.024500
   PBE mue parameter    XMuePBE         ....  0.123457
 Correlation Functional Correlation     .... PBE
   PBE beta parameter  CBetaPBE         ....  0.030000
 LDA part of GGA corr.  LDAOpt          .... PW91-LDA
 Gradients option       PostSCFGGA      .... off
 Hybrid DFT is turned on
   Fraction HF Exchange ScalHFX         ....  0.420000
   Scaling of DF-GGA-X  ScalDFX         ....  0.580000
   Scaling of DF-GGA-C  ScalDFC         ....  1.000000
   Scaling of DF-LDA-C  ScalLDAC        ....  1.000000
   Perturbative correction              ....  0.000000
   Density functional embedding theory  .... OFF
 RI-approximation to the Coulomb term is turned on
   Number of AuxJ basis functions       .... 366
   RIJ-ON(X) (HFX calculated with O(N)) .... on
   Number of AuxJ basis functions       .... 366
   RIJ-COSX (HFX calculated with COS-X)).... on


General Settings:
 Integral files         IntName         .... pbeh-3c
 Hartree-Fock type      HFTyp           .... RHF
 Total Charge           Charge          ....    0
 Multiplicity           Mult            ....    1
 Number of Electrons    NEL             ....   72
 Basis Dimension        Dim             ....  111
 Nuclear Repulsion      ENuc            ....    478.7895170650 Eh

Convergence Acceleration:
 DIIS                   CNVDIIS         .... on
   Start iteration      DIISMaxIt       ....    12
   Startup error        DIISStart       ....  0.200000
   # of expansion vecs  DIISMaxEq       ....     5
   Bias factor          DIISBfac        ....   1.050
   Max. coefficient     DIISMaxC        ....  10.000
 Trust-Rad. Augm. Hess. CNVTRAH         .... auto
   Auto Start mean grad. ratio tolernc. ....  1.125000
   Auto Start start iteration           ....    20
   Auto Start num. interpolation iter.  ....    10
   Max. Number of Micro iterations      ....    16
   Max. Number of Macro iterations      .... Maxiter - #DIIS iter
   Number of Davidson start vectors     ....     2
   Converg. threshold I  (grad. norm)   ....   1.000e-05
   Converg. threshold II (energy diff.) ....   1.000e-08
   Grad. Scal. Fac. for Micro threshold ....   0.100
   Minimum threshold for Micro iter.    ....   0.010
   NR start threshold (gradient norm)   ....   0.001
   Initial trust radius                 ....   0.400
   Minimum AH scaling param. (alpha)    ....   1.000
   Maximum AH scaling param. (alpha)    .... 1000.000
   Orbital update algorithm             .... Taylor
   White noise on init. David. guess    .... on
   Maximum white noise                  ....   0.010
   Quad. conv. algorithm                .... NR
   COSX micro iterations for RIJONX calc.... off
 SOSCF                  CNVSOSCF        .... on
   Start iteration      SOSCFMaxIt      ....   150
   Startup grad/error   SOSCFStart      ....  0.003300
 Level Shifting         CNVShift        .... on
   Level shift para.    LevelShift      ....    0.2500
   Turn off err/grad.   ShiftErr        ....    0.0010
 Zerner damping         CNVZerner       .... off
 Static damping         CNVDamp         .... on
   Fraction old density DampFac         ....    0.7000
   Max. Damping (<1)    DampMax         ....    0.9800
   Min. Damping (>=0)   DampMin         ....    0.0000
   Turn off err/grad.   DampErr         ....    0.1000
 Fernandez-Rico         CNVRico         .... off

SCF Procedure:
 Maximum # iterations   MaxIter         ....   125
 SCF integral mode      SCFMode         .... Direct
   Integral package                     .... SHARK and LIBINT hybrid scheme
 Reset frequency        DirectResetFreq ....    20
 Integral Threshold     Thresh          ....  2.500e-11 Eh
 Primitive CutOff       TCut            ....  2.500e-12 Eh

Convergence Tolerance:
 Convergence Check Mode ConvCheckMode   .... Total+1el-Energy
 Convergence forced     ConvForced      .... 0
 Energy Change          TolE            ....  1.000e-08 Eh
 1-El. energy change                    ....  1.000e-05 Eh
 Orbital Gradient       TolG            ....  1.000e-05
 Orbital Rotation angle TolX            ....  1.000e-05
 DIIS Error             TolErr          ....  5.000e-07


Diagonalization of the overlap matrix:
Smallest eigenvalue                        ... 8.029e-03
Time for diagonalization                   ...    0.028 sec
Threshold for overlap eigenvalues          ... 1.000e-08
Number of eigenvalues below threshold      ... 0
Time for construction of square roots      ...    0.202 sec
Total time needed                          ...    0.414 sec

--------------------------------
INITIAL GUESS: MINIMAL BASIS EHT
--------------------------------
The minimal basis has 48 functions
EHT matrix was diagonalized
Basis set overlap was calculated now projecting the orbitals
Using GuessMode=FMatrix for the initial guess
C*T matrix was formed
Effective Fockian was calculated
Effective Fockian was diagonalized
Initial density was built
                      ------------------
                      INITIAL GUESS DONE
                      ------------------
-------------------
DFT GRID GENERATION
-------------------

General Integration Accuracy     IntAcc      ... 4.959
Radial Grid Type                 RadialGrid  ... OptM3 with GC (2021)
Angular Grid (max. ang.)         AngularGrid ... 6 (Lebedev-590)
Angular grid pruning method      GridPruning ... 4 (adaptive)
Weight generation scheme         WeightScheme... Becke
Basis function cutoff            BFCut       ... 1.0000e-11
Integration weight cutoff        WCut        ... 1.0000e-14
Angular grids for H and He will be reduced by one unit
Partially contracted basis set               ... off
Rotationally invariant grid construction     ... off

Total number of grid points                  ...   143928
Total number of batches                      ...     2256
Average number of points per batch           ...       63
Average number of grid points per atom       ...    11994
Time for grid setup =    3.640 sec

--------------------
COSX GRID GENERATION
--------------------

GRIDX 1
-------
General Integration Accuracy     IntAcc      ... 4.020
Radial Grid Type                 RadialGrid  ... OptM3 with GC (2021)
Angular Grid (max. ang.)         AngularGrid ... 2 (Lebedev-110)
Angular grid pruning method      GridPruning ... 4 (adaptive)
Weight generation scheme         WeightScheme... Becke
Basis function cutoff            BFCut       ... 1.0000e-11
Integration weight cutoff        WCut        ... 1.0000e-14
Angular grids for H and He will be reduced by one unit
Partially contracted basis set               ... on
Rotationally invariant grid construction     ... off

Total number of grid points                  ...    15931
Total number of batches                      ...      254
Average number of points per batch           ...       62
Average number of grid points per atom       ...     1328
UseSFitting                                  ... on

GRIDX 2
-------
General Integration Accuracy     IntAcc      ... 4.338
Radial Grid Type                 RadialGrid  ... OptM3 with GC (2021)
Angular Grid (max. ang.)         AngularGrid ... 3 (Lebedev-194)
Angular grid pruning method      GridPruning ... 4 (adaptive)
Weight generation scheme         WeightScheme... Becke
Basis function cutoff            BFCut       ... 1.0000e-11
Integration weight cutoff        WCut        ... 1.0000e-14
Angular grids for H and He will be reduced by one unit
Partially contracted basis set               ... on
Rotationally invariant grid construction     ... off

Total number of grid points                  ...    36621
Total number of batches                      ...      578
Average number of points per batch           ...       63
Average number of grid points per atom       ...     3052
UseSFitting                                  ... on

GRIDX 3
-------
General Integration Accuracy     IntAcc      ... 4.871
Radial Grid Type                 RadialGrid  ... OptM3 with GC (2021)
Angular Grid (max. ang.)         AngularGrid ... 4 (Lebedev-302)
Angular grid pruning method      GridPruning ... 4 (adaptive)
Weight generation scheme         WeightScheme... Becke
Basis function cutoff            BFCut       ... 1.0000e-11
Integration weight cutoff        WCut        ... 1.0000e-14
Angular grids for H and He will be reduced by one unit
Partially contracted basis set               ... on
Rotationally invariant grid construction     ... off

Total number of grid points                  ...    68942
Total number of batches                      ...     1084
Average number of points per batch           ...       63
Average number of grid points per atom       ...     5745
UseSFitting                                  ... on

Time for X-Grid setup             =    4.961 sec

--------------
SCF ITERATIONS
--------------
ITER       Energy         Delta-E        Max-DP      RMS-DP      [F,P]     Damp
               ***  Starting incremental Fock matrix formation  ***
  0  -1188.9934136096   0.000000000000 0.13098602  0.00649361  0.4171053 0.7000
  1  -1189.4406484883  -0.447234878709 0.09664559  0.00443703  0.2888613 0.7000
                               ***Turning on DIIS***
  2  -1189.7270711378  -0.286422649495 0.07143861  0.00305320  0.1967145 0.7000
  3  -1189.9264934733  -0.199422335417 0.05447630  0.00225524  0.1334865 0.7000
  4  -1190.0682816707  -0.141788197456 0.13344054  0.00584136  0.0922947 0.0000
  5  -1190.4102396384  -0.341957967663 0.01354296  0.00058851  0.0079531 0.0000
  6  -1190.4109985931  -0.000758954676 0.00456829  0.00026499  0.0033139 0.0000
                      *** Initiating the SOSCF procedure ***
                           *** Shutting down DIIS ***
                      *** Re-Reading the Fockian *** 
                      *** Removing any level shift *** 
ITER      Energy       Delta-E        Grad      Rot      Max-DP    RMS-DP
  7  -1190.41118954  -0.0001909457  0.001365  0.001365  0.004924  0.000263
               *** Restarting incremental Fock matrix formation ***
  8  -1190.41121393  -0.0000243871  0.000129  0.000317  0.000362  0.000023
  9  -1190.41121458  -0.0000006508  0.000068  0.000159  0.000236  0.000012
 10  -1190.41121468  -0.0000001051  0.000037  0.000039  0.000084  0.000004
 11  -1190.41121472  -0.0000000343  0.000006  0.000006  0.000024  0.000001
                  ***Gradient check signals convergence***
              ***Rediagonalizing the Fockian in SOSCF/NRSCF***

               *****************************************************
               *                     SUCCESS                       *
               *           SCF CONVERGED AFTER  12 CYCLES          *
               *****************************************************

Old exchange energy                            =    -37.804057806 Eh
New exchange energy                            =    -37.804055223 Eh
Exchange energy change after final integration =      0.000002583 Eh
Total energy after final integration           =  -1190.411212138 Eh
Final COS-X integration done in                =     2.425 sec

----------------
TOTAL SCF ENERGY
----------------

Total Energy       :        -1190.41121214 Eh          -32392.73590 eV

Components:
Nuclear Repulsion  :          478.78951706 Eh           13028.52512 eV
Electronic Energy  :        -1669.20072920 Eh          -45421.26101 eV
One Electron Energy:        -2596.52917207 Eh          -70655.15081 eV
Two Electron Energy:          927.32844287 Eh           25233.88980 eV
Max COSX asymmetry :            0.00000138 Eh               0.00004 eV

Virial components:
Potential Energy   :        -2377.75958758 Eh          -64702.12777 eV
Kinetic Energy     :         1187.34837544 Eh           32309.39187 eV
Virial Ratio       :            2.00257956


DFT components:
N(Alpha)           :       35.999993994369 electrons
N(Beta)            :       35.999993994369 electrons
N(Total)           :       71.999987988739 electrons
E(X)               :      -50.393848855096 Eh       
E(C)               :       -3.493894730894 Eh       
E(XC)              :      -53.887743585990 Eh       
DFET-embed. en.    :        0.000000000000 Eh       

---------------
SCF CONVERGENCE
---------------

  Last Energy change         ...   -5.6048e-09  Tolerance :   1.0000e-08
  Last MAX-Density change    ...    5.7732e-15  Tolerance :   1.0000e-07
  Last RMS-Density change    ...    9.5524e-17  Tolerance :   5.0000e-09
  Last Orbital Gradient      ...    1.3402e-06  Tolerance :   1.0000e-05
  Last Orbital Rotation      ...    2.4516e-06  Tolerance :   1.0000e-05

             **** THE GBW FILE WAS UPDATED (pbeh-3c.gbw) ****
             **** DENSITY pbeh-3c.scfp WAS UPDATED ****
             **** ENERGY FILE WAS UPDATED (pbeh-3c.en.tmp) ****
             **** THE GBW FILE WAS UPDATED (pbeh-3c.gbw) ****
             **** DENSITY pbeh-3c.scfp WAS UPDATED ****
----------------
ORBITAL ENERGIES
----------------

  NO   OCC          E(Eh)            E(eV) 
   0   2.0000     -77.775970     -2116.3917 
   1   2.0000     -77.775966     -2116.3916 
   2   2.0000     -77.775965     -2116.3916 
   3   2.0000     -14.636143      -398.2697 
   4   2.0000     -14.636123      -398.2692 
   5   2.0000     -14.636118      -398.2690 
   6   2.0000      -6.843337      -186.2167 
   7   2.0000      -6.843332      -186.2165 
   8   2.0000      -6.843331      -186.2165 
   9   2.0000      -4.934728      -134.2808 
  10   2.0000      -4.934728      -134.2808 
  11   2.0000      -4.934713      -134.2804 
  12   2.0000      -4.933707      -134.2530 
  13   2.0000      -4.933700      -134.2528 
  14   2.0000      -4.933699      -134.2528 
  15   2.0000      -4.932265      -134.2137 
  16   2.0000      -4.932237      -134.2130 
  17   2.0000      -4.932237      -134.2130 
  18   2.0000      -1.012824       -27.5604 
  19   2.0000      -0.954247       -25.9664 
  20   2.0000      -0.954246       -25.9663 
  21   2.0000      -0.703272       -19.1370 
  22   2.0000      -0.703270       -19.1369 
  23   2.0000      -0.666287       -18.1306 
  24   2.0000      -0.533995       -14.5307 
  25   2.0000      -0.533994       -14.5307 
  26   2.0000      -0.511952       -13.9309 
  27   2.0000      -0.501928       -13.6581 
  28   2.0000      -0.447459       -12.1760 
  29   2.0000      -0.447457       -12.1759 
  30   2.0000      -0.393938       -10.7196 
  31   2.0000      -0.335494        -9.1293 
  32   2.0000      -0.318708        -8.6725 
  33   2.0000      -0.318708        -8.6725 
  34   2.0000      -0.278545        -7.5796 
  35   2.0000      -0.278544        -7.5796 
  36   0.0000       0.036771         1.0006 
  37   0.0000       0.036772         1.0006 
  38   0.0000       0.069801         1.8994 
  39   0.0000       0.123535         3.3616 
  40   0.0000       0.123539         3.3617 
  41   0.0000       0.129928         3.5355 
  42   0.0000       0.142573         3.8796 
  43   0.0000       0.173113         4.7107 
  44   0.0000       0.173113         4.7107 
  45   0.0000       0.212293         5.7768 
  46   0.0000       0.212296         5.7769 
  47   0.0000       0.220950         6.0123 
  48   0.0000       0.334019         9.0891 
  49   0.0000       0.412421        11.2225 
  50   0.0000       0.412436        11.2229 
  51   0.0000       0.500672        13.6240 
  52   0.0000       0.502328        13.6690 
  53   0.0000       0.502332        13.6692 
  54   0.0000       0.516813        14.0632 
  55   0.0000       0.535579        14.5738 
  56   0.0000       0.535581        14.5739 
  57   0.0000       0.562458        15.3053 
  58   0.0000       0.562459        15.3053 
  59   0.0000       0.567366        15.4388 
  60   0.0000       0.605627        16.4799 
  61   0.0000       0.605629        16.4800 
  62   0.0000       0.621972        16.9247 
  63   0.0000       0.638503        17.3746 
  64   0.0000       0.655563        17.8388 
  65   0.0000       0.685155        18.6440 
  66   0.0000       0.685159        18.6441 
  67   0.0000       0.772358        21.0169 
  68   0.0000       0.829941        22.5838 
  69   0.0000       0.829952        22.5841 
  70   0.0000       0.909804        24.7570 
  71   0.0000       0.909821        24.7575 
  72   0.0000       0.935369        25.4527 
  73   0.0000       0.948480        25.8094 
  74   0.0000       0.948486        25.8096 
  75   0.0000       0.950018        25.8513 
  76   0.0000       1.035711        28.1831 
  77   0.0000       1.035714        28.1832 
  78   0.0000       1.038206        28.2510 
  79   0.0000       1.038214        28.2512 
  80   0.0000       1.039226        28.2788 
  81   0.0000       1.064422        28.9644 
  82   0.0000       1.115019        30.3412 
  83   0.0000       1.115025        30.3414 
  84   0.0000       1.150945        31.3188 
  85   0.0000       1.163348        31.6563 
  86   0.0000       1.163357        31.6566 
  87   0.0000       1.342803        36.5395 
  88   0.0000       1.342804        36.5396 
  89   0.0000       1.374161        37.3928 
  90   0.0000       1.568186        42.6725 
  91   0.0000       1.568195        42.6727 
  92   0.0000       1.624117        44.1945 
  93   0.0000       1.809773        49.2464 
  94   0.0000       1.809775        49.2465 
  95   0.0000       1.867752        50.8241 
  96   0.0000       1.973539        53.7027 
  97   0.0000       2.000003        54.4228 
  98   0.0000       2.000006        54.4229 
  99   0.0000       2.247854        61.1672 
 100   0.0000       2.284252        62.1577 
 101   0.0000       2.284264        62.1580 
 102   0.0000       2.376506        64.6680 
 103   0.0000       2.376512        64.6682 
 104   0.0000       2.400778        65.3285 
 105   0.0000       2.428567        66.0847 
 106   0.0000       2.473995        67.3208 
 107   0.0000       2.474000        67.3210 
 108   0.0000      19.148396       521.0543 
 109   0.0000      19.148399       521.0544 
 110   0.0000      19.232564       523.3447 

                    ********************************
                    * MULLIKEN POPULATION ANALYSIS *
                    ********************************

-----------------------
MULLIKEN ATOMIC CHARGES
-----------------------
   0 N :   -0.907985
   1 P :    0.501126
   2 N :   -0.907985
   3 P :    0.501234
   4 N :   -0.908002
   5 P :    0.501234
   6 H :    0.365648
   7 H :    0.041165
   8 H :    0.365648
   9 H :    0.041141
  10 H :    0.365635
  11 H :    0.041141
Sum of atomic charges:   -0.0000000

--------------------------------
MULLIKEN REDUCED ORBITAL CHARGES
--------------------------------
  0 N s       :     3.616606  s :     3.616606
      pz      :     1.498166  p :     4.267338
      px      :     1.312238
      py      :     1.456934
      dz2     :     0.006015  d :     0.024041
      dxz     :     0.003212
      dyz     :     0.005144
      dx2y2   :     0.004635
      dxy     :     0.005035
  1 P s       :     5.597020  s :     5.597020
      pz      :     2.952547  p :     8.650671
      px      :     3.131573
      py      :     2.566550
      dz2     :     0.081491  d :     0.251183
      dxz     :     0.019948
      dyz     :     0.032587
      dx2y2   :     0.046633
      dxy     :     0.070524
  2 N s       :     3.616606  s :     3.616606
      pz      :     1.498166  p :     4.267338
      px      :     1.312238
      py      :     1.456934
      dz2     :     0.006015  d :     0.024041
      dxz     :     0.003212
      dyz     :     0.005144
      dx2y2   :     0.004635
      dxy     :     0.005035
  3 P s       :     5.596924  s :     5.596924
      pz      :     2.952550  p :     8.650660
      px      :     2.707798
      py      :     2.990311
      dz2     :     0.081491  d :     0.251183
      dxz     :     0.029427
      dyz     :     0.023108
      dx2y2   :     0.064551
      dxy     :     0.052606
  4 N s       :     3.616612  s :     3.616612
      pz      :     1.498167  p :     4.267350
      px      :     1.529284
      py      :     1.239899
      dz2     :     0.006014  d :     0.024041
      dxz     :     0.006110
      dyz     :     0.002246
      dx2y2   :     0.005235
      dxy     :     0.004435
  5 P s       :     5.596924  s :     5.596924
      pz      :     2.952550  p :     8.650660
      px      :     2.707798
      py      :     2.990311
      dz2     :     0.081491  d :     0.251183
      dxz     :     0.029427
      dyz     :     0.023108
      dx2y2   :     0.064551
      dxy     :     0.052606
  6 H s       :     0.634352  s :     0.634352
  7 H s       :     0.958835  s :     0.958835
  8 H s       :     0.634352  s :     0.634352
  9 H s       :     0.958859  s :     0.958859
 10 H s       :     0.634365  s :     0.634365
 11 H s       :     0.958859  s :     0.958859


                     *******************************
                     * LOEWDIN POPULATION ANALYSIS *
                     *******************************

----------------------
LOEWDIN ATOMIC CHARGES
----------------------
   0 N :   -0.604519
   1 P :    0.358102
   2 N :   -0.604519
   3 P :    0.358107
   4 N :   -0.604515
   5 P :    0.358107
   6 H :    0.245312
   7 H :    0.001102
   8 H :    0.245312
   9 H :    0.001101
  10 H :    0.245308
  11 H :    0.001101

-------------------------------
LOEWDIN REDUCED ORBITAL CHARGES
-------------------------------
  0 N s       :     3.251129  s :     3.251129
      pz      :     1.482448  p :     4.302456
      px      :     1.358266
      py      :     1.461742
      dz2     :     0.011562  d :     0.050934
      dxz     :     0.006631
      dyz     :     0.008109
      dx2y2   :     0.011173
      dxy     :     0.013459
  1 P s       :     5.400413  s :     5.400413
      pz      :     2.946015  p :     8.875877
      px      :     3.257449
      py      :     2.672414
      dz2     :     0.112700  d :     0.365607
      dxz     :     0.024084
      dyz     :     0.047928
      dx2y2   :     0.071925
      dxy     :     0.108970
  2 N s       :     3.251129  s :     3.251129
      pz      :     1.482448  p :     4.302456
      px      :     1.358266
      py      :     1.461742
      dz2     :     0.011562  d :     0.050934
      dxz     :     0.006631
      dyz     :     0.008109
      dx2y2   :     0.011173
      dxy     :     0.013459
  3 P s       :     5.400404  s :     5.400404
      pz      :     2.946016  p :     8.875882
      px      :     2.818673
      py      :     3.111194
      dz2     :     0.112699  d :     0.365607
      dxz     :     0.041967
      dyz     :     0.030046
      dx2y2   :     0.099709
      dxy     :     0.081187
  4 N s       :     3.251127  s :     3.251127
      pz      :     1.482450  p :     4.302454
      px      :     1.513477
      py      :     1.306528
      dz2     :     0.011562  d :     0.050934
      dxz     :     0.008849
      dyz     :     0.005892
      dx2y2   :     0.014602
      dxy     :     0.010029
  5 P s       :     5.400404  s :     5.400404
      pz      :     2.946016  p :     8.875882
      px      :     2.818673
      py      :     3.111194
      dz2     :     0.112699  d :     0.365607
      dxz     :     0.041967
      dyz     :     0.030046
      dx2y2   :     0.099709
      dxy     :     0.081187
  6 H s       :     0.754688  s :     0.754688
  7 H s       :     0.998898  s :     0.998898
  8 H s       :     0.754688  s :     0.754688
  9 H s       :     0.998899  s :     0.998899
 10 H s       :     0.754692  s :     0.754692
 11 H s       :     0.998899  s :     0.998899


                      *****************************
                      * MAYER POPULATION ANALYSIS *
                      *****************************

  NA   - Mulliken gross atomic population
  ZA   - Total nuclear charge
  QA   - Mulliken gross atomic charge
  VA   - Mayer's total valence
  BVA  - Mayer's bonded valence
  FA   - Mayer's free valence

  ATOM       NA         ZA         QA         VA         BVA        FA
  0 N      7.9080     7.0000    -0.9080     2.7972     2.7972    -0.0000
  1 P     14.4989    15.0000     0.5011     2.9635     2.9635     0.0000
  2 N      7.9080     7.0000    -0.9080     2.7972     2.7972    -0.0000
  3 P     14.4988    15.0000     0.5012     2.9635     2.9635    -0.0000
  4 N      7.9080     7.0000    -0.9080     2.7972     2.7972     0.0000
  5 P     14.4988    15.0000     0.5012     2.9635     2.9635    -0.0000
  6 H      0.6344     1.0000     0.3656     0.8322     0.8322    -0.0000
  7 H      0.9588     1.0000     0.0412     0.9762     0.9762     0.0000
  8 H      0.6344     1.0000     0.3656     0.8322     0.8322     0.0000
  9 H      0.9589     1.0000     0.0411     0.9762     0.9762    -0.0000
 10 H      0.6344     1.0000     0.3656     0.8322     0.8322     0.0000
 11 H      0.9589     1.0000     0.0411     0.9762     0.9762    -0.0000

  Mayer bond orders larger than 0.100000
B(  0-N ,  1-P ) :   0.9608 B(  0-N ,  5-P ) :   0.9607 B(  0-N ,  6-H ) :   0.8218 
B(  1-P ,  2-N ) :   0.9608 B(  1-P ,  7-H ) :   0.9409 B(  2-N ,  3-P ) :   0.9607 
B(  2-N ,  8-H ) :   0.8218 B(  3-P ,  4-N ) :   0.9607 B(  3-P ,  9-H ) :   0.9409 
B(  4-N ,  5-P ) :   0.9607 B(  4-N , 10-H ) :   0.8218 B(  5-P , 11-H ) :   0.9409 


-------
TIMINGS
-------

Total SCF time: 0 days 0 hours 1 min 10 sec 

Total time                  ....      70.840 sec
Sum of individual times     ....      63.689 sec  ( 89.9%)

Fock matrix formation       ....      50.247 sec  ( 70.9%)
  Split-RI-J                ....       5.315 sec  ( 10.6% of F)
  Chain of spheres X        ....      17.377 sec  ( 34.6% of F)
  XC integration            ....      14.604 sec  ( 29.1% of F)
    Basis function eval.    ....       2.344 sec  ( 16.1% of XC)
    Density eval.           ....       1.350 sec  (  9.2% of XC)
    XC-Functional eval.     ....       1.047 sec  (  7.2% of XC)
    XC-Potential eval.      ....       0.914 sec  (  6.3% of XC)
Diagonalization             ....       1.113 sec  (  1.6%)
Density matrix formation    ....       0.190 sec  (  0.3%)
Population analysis         ....       0.561 sec  (  0.8%)
Initial guess               ....       0.166 sec  (  0.2%)
Orbital Transformation      ....       0.000 sec  (  0.0%)
Orbital Orthonormalization  ....       0.000 sec  (  0.0%)
DIIS solution               ....       2.222 sec  (  3.1%)
SOSCF solution              ....       0.589 sec  (  0.8%)
Grid generation             ....       8.601 sec  ( 12.1%)

Maximum memory used throughout the entire SCF-calculation: 51.6 MB


-------------------------------------------------------------------------------
                          DFT DISPERSION CORRECTION                            
                                                                               
                              DFTD3 V3.1  Rev 1                                
                          USING Becke-Johnson damping                          
-------------------------------------------------------------------------------
The PBEh-3c composite method is recognized
Using three-body term ABC
Active option DFTDOPT                   ...         4   

molecular C6(AA) [au] = 3479.766555 


            DFT-D V3
 parameters
 s6 scaling factor         :     1.0000 
 a1 scaling factor         :     0.4860 
 s8 scaling factor         :     0.0000 
 a2 scaling factor         :     4.5000 
 Damping factor alpha9(ATM):    16.0000 
 ad hoc parameters k1-k3   :    16.0000     1.3333    -4.0000 

 Edisp/kcal,au: -5.244091256737  -0.008356990474 
 E6   /kcal   :  -5.256697275 
 E8   /kcal   :  -0.000000000 
 E6(ABC)      :   0.012606018 
 % E8         :   0.000000000 
 % E6(ABC)    :  -0.240385184 

-------------------------   ----------------
Dispersion correction           -0.008356990
-------------------------   ----------------

------------------   -----------------
gCP correction             0.020708820
------------------   -----------------

-------------------------   --------------------
FINAL SINGLE POINT ENERGY     -1190.398860309297
-------------------------   --------------------


                            ***************************************
                            *     ORCA property calculations      *
                            ***************************************

                                    ---------------------
                                    Active property flags
                                    ---------------------
   (+) Dipole Moment


------------------------------------------------------------------------------
                       ORCA ELECTRIC PROPERTIES CALCULATION
------------------------------------------------------------------------------

Dipole Moment Calculation                       ... on
Quadrupole Moment Calculation                   ... off
Polarizability Calculation                      ... off
GBWName                                         ... pbeh-3c.gbw
Electron density                                ... pbeh-3c.scfp
The origin for moment calculation is the CENTER OF MASS  = ( 0.000000,  0.000000 -0.122537)

-------------
DIPOLE MOMENT
-------------
                                X             Y             Z
Electronic contribution:     -0.00003      -0.00000      -1.50991
Nuclear contribution   :     -0.00000       0.00000       0.88383
                        -----------------------------------------
Total Dipole Moment    :     -0.00003      -0.00000      -0.62608
                        -----------------------------------------
Magnitude (a.u.)       :      0.62608
Magnitude (Debye)      :      1.59138



--------------------
Rotational spectrum 
--------------------
 
Rotational constants in cm-1:     0.075721     0.075721     0.040386 
Rotational constants in MHz :  2270.043772  2270.043753  1210.729090 

 Dipole components along the rotational axes: 
x,y,z [a.u.] :     0.000000    -0.000035    -0.626083 
x,y,z [Debye]:     0.000000    -0.000089    -1.591376 

 

Timings for individual modules:

Sum of individual times         ...       75.356 sec (=   1.256 min)
GTO integral calculation        ...        3.924 sec (=   0.065 min)   5.2 %
SCF iterations                  ...       71.432 sec (=   1.191 min)  94.8 %
                             ****ORCA TERMINATED NORMALLY****
TOTAL RUN TIME: 0 days 0 hours 1 minutes 18 seconds 904 msec
