
                                 *****************
                                 * O   R   C   A *
                                 *****************

                                            #,                                       
                                            ###                                      
                                            ####                                     
                                            #####                                    
                                            ######                                   
                                           ########,                                 
                                     ,,################,,,,,                         
                               ,,#################################,,                 
                          ,,##########################################,,             
                       ,#########################################, ''#####,          
                    ,#############################################,,   '####,        
                  ,##################################################,,,,####,       
                ,###########''''           ''''###############################       
              ,#####''   ,,,,##########,,,,          '''####'''          '####       
            ,##' ,,,,###########################,,,                        '##       
           ' ,,###''''                  '''############,,,                           
         ,,##''                                '''############,,,,        ,,,,,,###''
      ,#''                                            '''#######################'''  
     '                                                          ''''####''''         
             ,#######,   #######,   ,#######,      ##                                
            ,#'     '#,  ##    ##  ,#'     '#,    #''#        ######   ,####,        
            ##       ##  ##   ,#'  ##            #'  '#       #        #'  '#        
            ##       ##  #######   ##           ,######,      #####,   #    #        
            '#,     ,#'  ##    ##  '#,     ,#' ,#      #,         ##   #,  ,#        
             '#######'   ##     ##  '#######'  #'      '#     #####' # '####'        



                  #######################################################
                  #                        -***-                        #
                  #          Department of theory and spectroscopy      #
                  #    Directorship and core code : Frank Neese         #
                  #        Max Planck Institute fuer Kohlenforschung    #
                  #                Kaiser Wilhelm Platz 1               #
                  #                 D-45470 Muelheim/Ruhr               #
                  #                      Germany                        #
                  #                                                     #
                  #                  All rights reserved                #
                  #                        -***-                        #
                  #######################################################


                         Program Version 5.0.3 -  RELEASE  -


 With contributions from (in alphabetic order):
   Daniel Aravena         : Magnetic Suceptibility
   Michael Atanasov       : Ab Initio Ligand Field Theory (pilot matlab implementation)
   Alexander A. Auer      : GIAO ZORA, VPT2 properties, NMR spectrum
   Ute Becker             : Parallelization
   Giovanni Bistoni       : ED, misc. LED, open-shell LED, HFLD
   Martin Brehm           : Molecular dynamics
   Dmytro Bykov           : SCF Hessian
   Vijay G. Chilkuri      : MRCI spin determinant printing, contributions to CSF-ICE
   Dipayan Datta          : RHF DLPNO-CCSD density
   Achintya Kumar Dutta   : EOM-CC, STEOM-CC
   Dmitry Ganyushin       : Spin-Orbit,Spin-Spin,Magnetic field MRCI
   Miquel Garcia          : C-PCM and meta-GGA Hessian, CC/C-PCM, Gaussian charge scheme
   Yang Guo               : DLPNO-NEVPT2, F12-NEVPT2, CIM, IAO-localization
   Andreas Hansen         : Spin unrestricted coupled pair/coupled cluster methods
   Benjamin Helmich-Paris : MC-RPA, TRAH-SCF, COSX integrals
   Lee Huntington         : MR-EOM, pCC
   Robert Izsak           : Overlap fitted RIJCOSX, COSX-SCS-MP3, EOM
   Marcus Kettner         : VPT2
   Christian Kollmar      : KDIIS, OOCD, Brueckner-CCSD(T), CCSD density, CASPT2, CASPT2-K
   Simone Kossmann        : Meta GGA functionals, TD-DFT gradient, OOMP2, MP2 Hessian
   Martin Krupicka        : Initial AUTO-CI
   Lucas Lang             : DCDCAS
   Marvin Lechner         : AUTO-CI (C++ implementation), FIC-MRCC
   Dagmar Lenk            : GEPOL surface, SMD
   Dimitrios Liakos       : Extrapolation schemes; Compound Job, initial MDCI parallelization
   Dimitrios Manganas     : Further ROCIS development; embedding schemes
   Dimitrios Pantazis     : SARC Basis sets
   Anastasios Papadopoulos: AUTO-CI, single reference methods and gradients
   Taras Petrenko         : DFT Hessian,TD-DFT gradient, ASA, ECA, R-Raman, ABS, FL, XAS/XES, NRVS
   Peter Pinski           : DLPNO-MP2, DLPNO-MP2 Gradient
   Christoph Reimann      : Effective Core Potentials
   Marius Retegan         : Local ZFS, SOC
   Christoph Riplinger    : Optimizer, TS searches, QM/MM, DLPNO-CCSD(T), (RO)-DLPNO pert. Triples
   Tobias Risthaus        : Range-separated hybrids, TD-DFT gradient, RPA, STAB
   Michael Roemelt        : Original ROCIS implementation
   Masaaki Saitow         : Open-shell DLPNO-CCSD energy and density
   Barbara Sandhoefer     : DKH picture change effects
   Avijit Sen             : IP-ROCIS
   Kantharuban Sivalingam : CASSCF convergence, NEVPT2, FIC-MRCI
   Bernardo de Souza      : ESD, SOC TD-DFT
   Georgi Stoychev        : AutoAux, RI-MP2 NMR, DLPNO-MP2 response
   Willem Van den Heuvel  : Paramagnetic NMR
   Boris Wezisla          : Elementary symmetry handling
   Frank Wennmohs         : Technical directorship


 We gratefully acknowledge several colleagues who have allowed us to
 interface, adapt or use parts of their codes:
   Stefan Grimme, W. Hujo, H. Kruse, P. Pracht,  : VdW corrections, initial TS optimization,
                  C. Bannwarth, S. Ehlert          DFT functionals, gCP, sTDA/sTD-DF
   Ed Valeev, F. Pavosevic, A. Kumar             : LibInt (2-el integral package), F12 methods
   Garnet Chan, S. Sharma, J. Yang, R. Olivares  : DMRG
   Ulf Ekstrom                                   : XCFun DFT Library
   Mihaly Kallay                                 : mrcc  (arbitrary order and MRCC methods)
   Jiri Pittner, Ondrej Demel                    : Mk-CCSD
   Frank Weinhold                                : gennbo (NPA and NBO analysis)
   Christopher J. Cramer and Donald G. Truhlar   : smd solvation model
   Lars Goerigk                                  : TD-DFT with DH, B97 family of functionals
   V. Asgeirsson, H. Jonsson                     : NEB implementation
   FAccTs GmbH                                   : IRC, NEB, NEB-TS, DLPNO-Multilevel, CI-OPT
                                                   MM, QMMM, 2- and 3-layer-ONIOM, Crystal-QMMM,
                                                   LR-CPCM, SF, NACMEs, symmetry and pop. for TD-DFT,
                                                   nearIR, NL-DFT gradient (VV10), updates on ESD,
                                                   ML-optimized integration grids
   S Lehtola, MJT Oliveira, MAL Marques          : LibXC Library
   Liviu Ungur et al                             : ANISO software


 Your calculation uses the libint2 library for the computation of 2-el integrals
 For citations please refer to: http://libint.valeyev.net

 Your ORCA version has been built with support for libXC version: 5.1.0
 For citations please refer to: https://tddft.org/programs/libxc/

 This ORCA versions uses:
   CBLAS   interface :  Fast vector & matrix operations
   LAPACKE interface :  Fast linear algebra routines
   SCALAPACK package :  Parallel linear algebra routines
   Shared memory     :  Shared parallel matrices
   BLAS/LAPACK       :  OpenBLAS 0.3.15  USE64BITINT DYNAMIC_ARCH NO_AFFINITY Haswell SINGLE_THREADED
        Core in use  :  Haswell
   Copyright (c) 2011-2014, The OpenBLAS Project




***************************************
The coordinates will be read from file: Corannulene_TS.xyz
***************************************


Your calculation utilizes the geometrical counterpoise correction gCP
Please cite in your paper:
H.Kruse, S. Grimme J.Chem.Phys., 136, (2012), 154101 
   

Your calculation utilizes the atom-pairwise dispersion correction
with the Becke-Johnson damping scheme (D3BJ)
Cite in your paper:
S.Grimme, S.Ehrlich, L.Goerigk, J Comput Chem, (2011), 32, 1456–1465 
S.Grimme, J.Antony, S.Ehrlich and H.Krieg, J.Chem.Phys., 132, (2010), 154104 
   

Your calculation employs the composite approach PBEh-3c.
Please cite in your paper:
S. Grimme, J. G. Brandenburg, C. Bannwarth, A. Hansen J.Chem.Phys., 143, (2015), 054107 
   

================================================================================

----- Orbital basis set information -----
Your calculation utilizes the basis: def2-mSVP

----- AuxJ basis set information -----
Your calculation utilizes the auxiliary basis: def2/J
   F. Weigend, Phys. Chem. Chem. Phys. 8, 1057 (2006).

================================================================================
                                        WARNINGS
                       Please study these warnings very carefully!
================================================================================


INFO   : the flag for use of the SHARK integral package has been found!

================================================================================
                                       INPUT FILE
================================================================================
NAME = pbeh-3c.inp
|  1> ! PBEh-3c def2/J TightSCF DefGrid3
|  2> 
|  3> %maxcore 60000
|  4> 
|  5> %pal
|  6> nprocs 4
|  7> end
|  8> 
|  9> *xyzfile 0 1 Corannulene_TS.xyz
| 10> 
| 11>                          ****END OF INPUT****
================================================================================

                       ****************************
                       * Single Point Calculation *
                       ****************************

---------------------------------
CARTESIAN COORDINATES (ANGSTROEM)
---------------------------------
  C      1.362759    3.066224   -0.000003
  C      2.495379    2.245604   -0.000006
  C     -1.362759    3.066228    0.000005
  C      0.000001    2.547569   -0.000007
  C     -0.000005    1.186313   -0.000016
  C      2.424036    0.788195   -0.000002
  C     -2.495367    2.245607    0.000005
  C      3.337054   -0.349606    0.000007
  C      0.699330   -3.283432   -0.000002
  C     -0.699331   -3.283427   -0.000001
  C      1.496296   -2.061818   -0.000002
  C      0.697675   -0.959714   -0.000013
  C     -0.697664   -0.959713   -0.000009
  C     -1.496294   -2.061815   -0.000004
  C     -2.904370   -1.679573    0.000000
  C     -3.337064   -0.349610    0.000004
  C     -2.424038    0.788193   -0.000002
  C     -1.129365    0.367343   -0.000015
  C      2.904371   -1.679569    0.000010
  C      1.129361    0.367350   -0.000013
  H     -3.669300   -2.446136    0.000004
  H     -4.406644   -0.180375    0.000011
  H     -3.459867    2.737818    0.000016
  H     -1.531400    4.135999    0.000013
  H      1.531407    4.135997   -0.000008
  H      3.459868    2.737838   -0.000005
  H      4.406637   -0.180378    0.000022
  H      3.669296   -2.446136    0.000017
  H      1.192552   -4.247490   -0.000001
  H     -1.192554   -4.247486   -0.000005

----------------------------
CARTESIAN COORDINATES (A.U.)
----------------------------
  NO LB      ZA    FRAG     MASS         X           Y           Z
   0 C     6.0000    0    12.011    2.575242    5.794324   -0.000005
   1 C     6.0000    0    12.011    4.715583    4.243577   -0.000011
   2 C     6.0000    0    12.011   -2.575241    5.794331    0.000010
   3 C     6.0000    0    12.011    0.000002    4.814208   -0.000013
   4 C     6.0000    0    12.011   -0.000009    2.241806   -0.000031
   5 C     6.0000    0    12.011    4.580765    1.489473   -0.000003
   6 C     6.0000    0    12.011   -4.715561    4.243582    0.000009
   7 C     6.0000    0    12.011    6.306119   -0.660659    0.000014
   8 C     6.0000    0    12.011    1.321541   -6.204788   -0.000004
   9 C     6.0000    0    12.011   -1.321544   -6.204777   -0.000002
  10 C     6.0000    0    12.011    2.827589   -3.896271   -0.000005
  11 C     6.0000    0    12.011    1.318414   -1.813597   -0.000025
  12 C     6.0000    0    12.011   -1.318394   -1.813595   -0.000018
  13 C     6.0000    0    12.011   -2.827585   -3.896266   -0.000008
  14 C     6.0000    0    12.011   -5.488463   -3.173934    0.000001
  15 C     6.0000    0    12.011   -6.306136   -0.660666    0.000008
  16 C     6.0000    0    12.011   -4.580768    1.489468   -0.000003
  17 C     6.0000    0    12.011   -2.134191    0.694177   -0.000028
  18 C     6.0000    0    12.011    5.488466   -3.173925    0.000019
  19 C     6.0000    0    12.011    2.134183    0.694190   -0.000024
  20 H     1.0000    0     1.008   -6.933972   -4.622527    0.000007
  21 H     1.0000    0     1.008   -8.327351   -0.340859    0.000020
  22 H     1.0000    0     1.008   -6.538202    5.173727    0.000030
  23 H     1.0000    0     1.008   -2.893926    7.815905    0.000026
  24 H     1.0000    0     1.008    2.893939    7.815902   -0.000015
  25 H     1.0000    0     1.008    6.538204    5.173764   -0.000010
  26 H     1.0000    0     1.008    8.327337   -0.340865    0.000041
  27 H     1.0000    0     1.008    6.933964   -4.622527    0.000033
  28 H     1.0000    0     1.008    2.253596   -8.026592   -0.000002
  29 H     1.0000    0     1.008   -2.253601   -8.026585   -0.000009

--------------------------------
INTERNAL COORDINATES (ANGSTROEM)
--------------------------------
 C      0   0   0     0.000000000000     0.00000000     0.00000000
 C      1   0   0     1.398658153959     0.00000000     0.00000000
 C      1   2   0     2.725518400014   144.07552557     0.00000000
 C      1   2   3     1.458119826068   123.23903380     0.00000000
 C      4   1   2     1.361256500044   110.83665812     0.00000000
 C      2   1   3     1.459154434202   123.12205809     0.00000000
 C      3   1   2     1.398649347129   144.07505803     0.00000000
 C      6   2   1     1.458832435124   138.45251469   180.00061562
 C      8   6   2     3.945241444161    99.29714758   180.00001471
 C      9   8   6     1.398660500012   131.95763182     0.00000000
 C      9   8   6     1.458594362484     8.83792753     0.00000000
 C     11   9  10     1.361039068268   110.95171659     0.00000000
 C     12  11   9     1.395339000006   125.92840310     0.00000000
 C     13  12  11     1.361043025447   125.92861232     0.00000000
 C     14  13  12     1.459036262560   110.74094326   179.99992485
 C     15  14  13     1.398580640135   123.20964115     0.00000000
 C     16  15  14     1.458838486695   123.23288803     0.00000000
 C     17  16  15     1.361356626262   110.73777330     0.00000000
 C      8   6   2     1.398576790168   123.23349543   179.99993645
 C      6   2   1     1.361357836140   110.80968952     0.00000000
 H     15  14  13     1.082929912869   119.75121046   179.99995026
 H     16  15  14     1.082886243237   117.01302462   180.00018803
 H      7   3   1     1.082835535366   117.03864032   179.99964978
 H      3   1   2     1.082981731390    98.95856361   179.99955490
 H      1   2   3     1.082984765880   116.96572749   180.00025002
 H      2   1   3     1.082835694364   117.03764374   180.00019754
 H      8   6   2     1.082887353589   119.75425885     0.00000000
 H     19   8   6     1.082928930348   117.03992043   180.00002185
 H      9   8   6     1.082901018680   110.94735964   179.99972609
 H     10   9   8     1.082903169769   117.09457471   179.99995737

---------------------------
INTERNAL COORDINATES (A.U.)
---------------------------
 C      0   0   0     0.000000000000     0.00000000     0.00000000
 C      1   0   0     2.643080865959     0.00000000     0.00000000
 C      1   2   0     5.150483348990   144.07552557     0.00000000
 C      1   2   3     2.755447141709   123.23903380     0.00000000
 C      4   1   2     2.572401983104   110.83665812     0.00000000
 C      2   1   3     2.757402267740   123.12205809     0.00000000
 C      3   1   2     2.643064223461   144.07505803     0.00000000
 C      6   2   1     2.756793777665   138.45251469   180.00061562
 C      8   6   2     7.455425861660    99.29714758   180.00001471
 C      9   8   6     2.643085299355   131.95763182     0.00000000
 C      9   8   6     2.756343885576     8.83792753     0.00000000
 C     11   9  10     2.571991096593   110.95171659     0.00000000
 C     12  11   9     2.636808573991   125.92840310     0.00000000
 C     13  12  11     2.571998574579   125.92861232     0.00000000
 C     14  13  12     2.757178955699   110.74094326   179.99992485
 C     15  14  13     2.642934386059   123.20964115     0.00000000
 C     16  15  14     2.756805213477   123.23288803     0.00000000
 C     17  16  15     2.572591194234   110.73777330     0.00000000
 C      8   6   2     2.642927110675   123.23349543   179.99993645
 C      6   2   1     2.572593480573   110.80968952     0.00000000
 H     15  14  13     2.046440957553   119.75121046   179.99995026
 H     16  15  14     2.046358433909   117.01302462   180.00018803
 H      7   3   1     2.046262609920   117.03864032   179.99964978
 H      3   1   2     2.046538880367    98.95856361   179.99955490
 H      1   2   3     2.046544614722   116.96572749   180.00025002
 H      2   1   3     2.046262910382   117.03764374   180.00019754
 H      8   6   2     2.046360532170   119.75425885     0.00000000
 H     19   8   6     2.046439100857   117.03992043   180.00002185
 H      9   8   6     2.046386355449   110.94735964   179.99972609
 H     10   9   8     2.046390420418   117.09457471   179.99995737

---------------------
BASIS SET INFORMATION
---------------------
There are 2 groups of distinct atoms

 Group   1 Type C   : 8s4p1d contracted to 4s2p1d pattern {5111/31/1}
 Group   2 Type H   : 4s contracted to 2s pattern {31}

Atom   0C    basis set group =>   1
Atom   1C    basis set group =>   1
Atom   2C    basis set group =>   1
Atom   3C    basis set group =>   1
Atom   4C    basis set group =>   1
Atom   5C    basis set group =>   1
Atom   6C    basis set group =>   1
Atom   7C    basis set group =>   1
Atom   8C    basis set group =>   1
Atom   9C    basis set group =>   1
Atom  10C    basis set group =>   1
Atom  11C    basis set group =>   1
Atom  12C    basis set group =>   1
Atom  13C    basis set group =>   1
Atom  14C    basis set group =>   1
Atom  15C    basis set group =>   1
Atom  16C    basis set group =>   1
Atom  17C    basis set group =>   1
Atom  18C    basis set group =>   1
Atom  19C    basis set group =>   1
Atom  20H    basis set group =>   2
Atom  21H    basis set group =>   2
Atom  22H    basis set group =>   2
Atom  23H    basis set group =>   2
Atom  24H    basis set group =>   2
Atom  25H    basis set group =>   2
Atom  26H    basis set group =>   2
Atom  27H    basis set group =>   2
Atom  28H    basis set group =>   2
Atom  29H    basis set group =>   2
---------------------------------
AUXILIARY/J BASIS SET INFORMATION
---------------------------------
There are 2 groups of distinct atoms

 Group   1 Type C   : 12s5p4d2f1g contracted to 6s4p3d1f1g pattern {711111/2111/211/2/1}
 Group   2 Type H   : 5s2p1d contracted to 3s1p1d pattern {311/2/1}

Atom   0C    basis set group =>   1
Atom   1C    basis set group =>   1
Atom   2C    basis set group =>   1
Atom   3C    basis set group =>   1
Atom   4C    basis set group =>   1
Atom   5C    basis set group =>   1
Atom   6C    basis set group =>   1
Atom   7C    basis set group =>   1
Atom   8C    basis set group =>   1
Atom   9C    basis set group =>   1
Atom  10C    basis set group =>   1
Atom  11C    basis set group =>   1
Atom  12C    basis set group =>   1
Atom  13C    basis set group =>   1
Atom  14C    basis set group =>   1
Atom  15C    basis set group =>   1
Atom  16C    basis set group =>   1
Atom  17C    basis set group =>   1
Atom  18C    basis set group =>   1
Atom  19C    basis set group =>   1
Atom  20H    basis set group =>   2
Atom  21H    basis set group =>   2
Atom  22H    basis set group =>   2
Atom  23H    basis set group =>   2
Atom  24H    basis set group =>   2
Atom  25H    basis set group =>   2
Atom  26H    basis set group =>   2
Atom  27H    basis set group =>   2
Atom  28H    basis set group =>   2
Atom  29H    basis set group =>   2


           ************************************************************
           *        Program running with 4 parallel MPI-processes     *
           *              working on a common directory               *
           ************************************************************
------------------------------------------------------------------------------
                           ORCA GTO INTEGRAL CALCULATION
                           -- RI-GTO INTEGRALS CHOSEN --
------------------------------------------------------------------------------
------------------------------------------------------------------------------
                   ___                                                        
                  /   \      - P O W E R E D   B Y -                         
                 /     \                                                     
                 |  |  |   _    _      __       _____    __    __             
                 |  |  |  | |  | |    /  \     |  _  \  |  |  /  |          
                  \  \/   | |  | |   /    \    | | | |  |  | /  /          
                 / \  \   | |__| |  /  /\  \   | |_| |  |  |/  /          
                |  |  |   |  __  | /  /__\  \  |    /   |      \           
                |  |  |   | |  | | |   __   |  |    \   |  |\   \          
                \     /   | |  | | |  |  |  |  | |\  \  |  | \   \       
                 \___/    |_|  |_| |__|  |__|  |_| \__\ |__|  \__/        
                                                                              
                      - O R C A' S   B I G   F R I E N D -                    
                                      &                                       
                       - I N T E G R A L  F E E D E R -                       
                                                                              
 v1 FN, 2020, v2 2021                                                         
------------------------------------------------------------------------------


Reading SHARK input file pbeh-3c.SHARKINP.tmp ... ok
----------------------
SHARK INTEGRAL PACKAGE
----------------------

Number of atoms                             ...     30
Number of basis functions                   ...    320
Number of shells                            ...    160
Maximum angular momentum                    ...      2
Integral batch strategy                     ... SHARK/LIBINT Hybrid
RI-J (if used) integral strategy            ... SPLIT-RIJ (Revised 2003 algorithm where possible)
Printlevel                                  ...      1
Contraction scheme used                     ... SEGMENTED contraction
Coulomb Range Separation                    ... NOT USED
Exchange Range Separation                   ... NOT USED
Finite Nucleus Model                        ... NOT USED
Auxiliary Coulomb fitting basis             ... AVAILABLE
   # of basis functions in Aux-J            ...   1090
   # of shells in Aux-J                     ...    350
   Maximum angular momentum in Aux-J        ...      4
Auxiliary J/K fitting basis                 ... NOT available
Auxiliary Correlation fitting basis         ... NOT available
Auxiliary 'external' fitting basis          ... NOT available
Integral threshold                          ...     2.500000e-11
Primitive cut-off                           ...     2.500000e-12
Primitive pair pre-selection threshold      ...     2.500000e-12

Calculating pre-screening integrals         ... done (  0.1 sec) Dimension = 160
Organizing shell pair data                  ... done (  0.5 sec)
Shell pair information
Total number of shell pairs                 ...     12880
Shell pairs after pre-screening             ...      9895
Total number of primitive shell pairs       ...     45440
Primitive shell pairs kept                  ...     22689
          la=0 lb=0:   3318 shell pairs
          la=1 lb=0:   3514 shell pairs
          la=1 lb=1:    790 shell pairs
          la=2 lb=0:   1370 shell pairs
          la=2 lb=1:    740 shell pairs
          la=2 lb=2:    163 shell pairs

Calculating one electron integrals          ... done (  0.1 sec)
Calculating RI/J V-Matrix + Cholesky decomp.... done (  1.2 sec)
Calculating Nuclear repulsion               ... done (  0.0 sec) ENN=   1377.462293013453 Eh

SHARK setup successfully completed in   3.6 seconds

Maximum memory used throughout the entire GTOINT-calculation: 20.8 MB


           ************************************************************
           *        Program running with 4 parallel MPI-processes     *
           *              working on a common directory               *
           ************************************************************
-------------------------------------------------------------------------------
                                 ORCA SCF
-------------------------------------------------------------------------------

------------
SCF SETTINGS
------------
Hamiltonian:
 Density Functional     Method          .... DFT(GTOs)
 Exchange Functional    Exchange        .... PBE
   PBE kappa parameter   XKappa         ....  1.024500
   PBE mue parameter    XMuePBE         ....  0.123457
 Correlation Functional Correlation     .... PBE
   PBE beta parameter  CBetaPBE         ....  0.030000
 LDA part of GGA corr.  LDAOpt          .... PW91-LDA
 Gradients option       PostSCFGGA      .... off
 Hybrid DFT is turned on
   Fraction HF Exchange ScalHFX         ....  0.420000
   Scaling of DF-GGA-X  ScalDFX         ....  0.580000
   Scaling of DF-GGA-C  ScalDFC         ....  1.000000
   Scaling of DF-LDA-C  ScalLDAC        ....  1.000000
   Perturbative correction              ....  0.000000
   Density functional embedding theory  .... OFF
 RI-approximation to the Coulomb term is turned on
   Number of AuxJ basis functions       .... 1090
   RIJ-ON(X) (HFX calculated with O(N)) .... on
   Number of AuxJ basis functions       .... 1090
   RIJ-COSX (HFX calculated with COS-X)).... on


General Settings:
 Integral files         IntName         .... pbeh-3c
 Hartree-Fock type      HFTyp           .... RHF
 Total Charge           Charge          ....    0
 Multiplicity           Mult            ....    1
 Number of Electrons    NEL             ....  130
 Basis Dimension        Dim             ....  320
 Nuclear Repulsion      ENuc            ....   1377.4622930135 Eh

Convergence Acceleration:
 DIIS                   CNVDIIS         .... on
   Start iteration      DIISMaxIt       ....    12
   Startup error        DIISStart       ....  0.200000
   # of expansion vecs  DIISMaxEq       ....     5
   Bias factor          DIISBfac        ....   1.050
   Max. coefficient     DIISMaxC        ....  10.000
 Trust-Rad. Augm. Hess. CNVTRAH         .... auto
   Auto Start mean grad. ratio tolernc. ....  1.125000
   Auto Start start iteration           ....    20
   Auto Start num. interpolation iter.  ....    10
   Max. Number of Micro iterations      ....    16
   Max. Number of Macro iterations      .... Maxiter - #DIIS iter
   Number of Davidson start vectors     ....     2
   Converg. threshold I  (grad. norm)   ....   1.000e-05
   Converg. threshold II (energy diff.) ....   1.000e-08
   Grad. Scal. Fac. for Micro threshold ....   0.100
   Minimum threshold for Micro iter.    ....   0.010
   NR start threshold (gradient norm)   ....   0.001
   Initial trust radius                 ....   0.400
   Minimum AH scaling param. (alpha)    ....   1.000
   Maximum AH scaling param. (alpha)    .... 1000.000
   Orbital update algorithm             .... Taylor
   White noise on init. David. guess    .... on
   Maximum white noise                  ....   0.010
   Quad. conv. algorithm                .... NR
   COSX micro iterations for RIJONX calc.... off
 SOSCF                  CNVSOSCF        .... on
   Start iteration      SOSCFMaxIt      ....   150
   Startup grad/error   SOSCFStart      ....  0.003300
 Level Shifting         CNVShift        .... on
   Level shift para.    LevelShift      ....    0.2500
   Turn off err/grad.   ShiftErr        ....    0.0010
 Zerner damping         CNVZerner       .... off
 Static damping         CNVDamp         .... on
   Fraction old density DampFac         ....    0.7000
   Max. Damping (<1)    DampMax         ....    0.9800
   Min. Damping (>=0)   DampMin         ....    0.0000
   Turn off err/grad.   DampErr         ....    0.1000
 Fernandez-Rico         CNVRico         .... off

SCF Procedure:
 Maximum # iterations   MaxIter         ....   125
 SCF integral mode      SCFMode         .... Direct
   Integral package                     .... SHARK and LIBINT hybrid scheme
 Reset frequency        DirectResetFreq ....    20
 Integral Threshold     Thresh          ....  2.500e-11 Eh
 Primitive CutOff       TCut            ....  2.500e-12 Eh

Convergence Tolerance:
 Convergence Check Mode ConvCheckMode   .... Total+1el-Energy
 Convergence forced     ConvForced      .... 0
 Energy Change          TolE            ....  1.000e-08 Eh
 1-El. energy change                    ....  1.000e-05 Eh
 Orbital Gradient       TolG            ....  1.000e-05
 Orbital Rotation angle TolX            ....  1.000e-05
 DIIS Error             TolErr          ....  5.000e-07


Diagonalization of the overlap matrix:
Smallest eigenvalue                        ... 1.106e-04
Time for diagonalization                   ...    0.043 sec
Threshold for overlap eigenvalues          ... 1.000e-08
Number of eigenvalues below threshold      ... 0
Time for construction of square roots      ...    0.090 sec
Total time needed                          ...    0.134 sec

--------------------------------
INITIAL GUESS: MINIMAL BASIS EHT
--------------------------------
The minimal basis has 110 functions
EHT matrix was diagonalized
Basis set overlap was calculated now projecting the orbitals
Using GuessMode=FMatrix for the initial guess
C*T matrix was formed
Effective Fockian was calculated
Effective Fockian was diagonalized
Initial density was built
                      ------------------
                      INITIAL GUESS DONE
                      ------------------
-------------------
DFT GRID GENERATION
-------------------

General Integration Accuracy     IntAcc      ... 4.959
Radial Grid Type                 RadialGrid  ... OptM3 with GC (2021)
Angular Grid (max. ang.)         AngularGrid ... 6 (Lebedev-590)
Angular grid pruning method      GridPruning ... 4 (adaptive)
Weight generation scheme         WeightScheme... Becke
Basis function cutoff            BFCut       ... 1.0000e-11
Integration weight cutoff        WCut        ... 1.0000e-14
Angular grids for H and He will be reduced by one unit
Partially contracted basis set               ... off
Rotationally invariant grid construction     ... off

Total number of grid points                  ...   367576
Total number of batches                      ...     5759
Average number of points per batch           ...       63
Average number of grid points per atom       ...    12253
Time for grid setup =    8.329 sec

--------------------
COSX GRID GENERATION
--------------------

GRIDX 1
-------
General Integration Accuracy     IntAcc      ... 4.020
Radial Grid Type                 RadialGrid  ... OptM3 with GC (2021)
Angular Grid (max. ang.)         AngularGrid ... 2 (Lebedev-110)
Angular grid pruning method      GridPruning ... 4 (adaptive)
Weight generation scheme         WeightScheme... Becke
Basis function cutoff            BFCut       ... 1.0000e-11
Integration weight cutoff        WCut        ... 1.0000e-14
Angular grids for H and He will be reduced by one unit
Partially contracted basis set               ... on
Rotationally invariant grid construction     ... off

Total number of grid points                  ...    42360
Total number of batches                      ...      676
Average number of points per batch           ...       62
Average number of grid points per atom       ...     1412
UseSFitting                                  ... on

GRIDX 2
-------
General Integration Accuracy     IntAcc      ... 4.338
Radial Grid Type                 RadialGrid  ... OptM3 with GC (2021)
Angular Grid (max. ang.)         AngularGrid ... 3 (Lebedev-194)
Angular grid pruning method      GridPruning ... 4 (adaptive)
Weight generation scheme         WeightScheme... Becke
Basis function cutoff            BFCut       ... 1.0000e-11
Integration weight cutoff        WCut        ... 1.0000e-14
Angular grids for H and He will be reduced by one unit
Partially contracted basis set               ... on
Rotationally invariant grid construction     ... off

Total number of grid points                  ...    93067
Total number of batches                      ...     1468
Average number of points per batch           ...       63
Average number of grid points per atom       ...     3102
UseSFitting                                  ... on

GRIDX 3
-------
General Integration Accuracy     IntAcc      ... 4.871
Radial Grid Type                 RadialGrid  ... OptM3 with GC (2021)
Angular Grid (max. ang.)         AngularGrid ... 4 (Lebedev-302)
Angular grid pruning method      GridPruning ... 4 (adaptive)
Weight generation scheme         WeightScheme... Becke
Basis function cutoff            BFCut       ... 1.0000e-11
Integration weight cutoff        WCut        ... 1.0000e-14
Angular grids for H and He will be reduced by one unit
Partially contracted basis set               ... on
Rotationally invariant grid construction     ... off

Total number of grid points                  ...   170981
Total number of batches                      ...     2685
Average number of points per batch           ...       63
Average number of grid points per atom       ...     5699
UseSFitting                                  ... on

Time for X-Grid setup             =    7.740 sec

--------------
SCF ITERATIONS
--------------
ITER       Energy         Delta-E        Max-DP      RMS-DP      [F,P]     Damp
               ***  Starting incremental Fock matrix formation  ***
  0   -764.5179340465   0.000000000000 0.23016922  0.00509893  0.4750633 0.7000
  1   -765.0747716334  -0.556837586969 0.16190836  0.00368515  0.3368170 0.7000
  2   -765.4750868369  -0.400315203485 0.11423884  0.00265720  0.2370495 0.7000
                               ***Turning on DIIS***
  3   -765.7607746965  -0.285687859541 0.08050362  0.00191328  0.1665968 0.7000
  4   -765.9638740190  -0.203099322513 0.05709553  0.00142774  0.1169859 0.7000
  5   -766.1078198785  -0.143945859542 0.13290144  0.00342725  0.0820432 0.0000
                      *** Initiating the SOSCF procedure ***
                           *** Shutting down DIIS ***
                      *** Re-Reading the Fockian *** 
                      *** Removing any level shift *** 
ITER      Energy       Delta-E        Grad      Rot      Max-DP    RMS-DP
  6   -766.45059886  -0.3427789814  0.001727  0.001727  0.001947  0.000074
               *** Restarting incremental Fock matrix formation ***
  7   -766.45070666  -0.0001077960  0.000527  0.001729  0.000873  0.000028
  8   -766.45072011  -0.0000134539  0.000149  0.000447  0.000653  0.000018
  9   -766.45071921   0.0000008973  0.000238  0.000265  0.000334  0.000009
 10   -766.45072125  -0.0000020342  0.000019  0.000034  0.000048  0.000001
 11   -766.45072124   0.0000000045  0.000019  0.000017  0.000025  0.000001
                  ***Gradient check signals convergence***
              ***Rediagonalizing the Fockian in SOSCF/NRSCF***

               *****************************************************
               *                     SUCCESS                       *
               *           SCF CONVERGED AFTER  12 CYCLES          *
               *****************************************************

Old exchange energy                            =    -45.052645228 Eh
New exchange energy                            =    -45.052648500 Eh
Exchange energy change after final integration =     -0.000003272 Eh
Total energy after final integration           =   -766.450724533 Eh
Final COS-X integration done in                =    31.992 sec

----------------
TOTAL SCF ENERGY
----------------

Total Energy       :         -766.45072453 Eh          -20856.18452 eV

Components:
Nuclear Repulsion  :         1377.46229301 Eh           37482.65457 eV
Electronic Energy  :        -2143.91301755 Eh          -58338.83910 eV
One Electron Energy:        -3771.14373829 Eh         -102618.03812 eV
Two Electron Energy:         1627.23072074 Eh           44279.19902 eV
Max COSX asymmetry :            0.00000181 Eh               0.00005 eV

Virial components:
Potential Energy   :        -1526.71959191 Eh          -41544.15216 eV
Kinetic Energy     :          760.26886738 Eh           20687.96764 eV
Virial Ratio       :            2.00813115


DFT components:
N(Alpha)           :       64.999994845467 electrons
N(Beta)            :       64.999994845467 electrons
N(Total)           :      129.999989690935 electrons
E(X)               :      -59.857739636770 Eh       
E(C)               :       -5.709927598949 Eh       
E(XC)              :      -65.567667235719 Eh       
DFET-embed. en.    :        0.000000000000 Eh       

---------------
SCF CONVERGENCE
---------------

  Last Energy change         ...   -1.8649e-08  Tolerance :   1.0000e-08
  Last MAX-Density change    ...    1.4433e-15  Tolerance :   1.0000e-07
  Last RMS-Density change    ...    3.0495e-17  Tolerance :   5.0000e-09
  Last Orbital Gradient      ...    1.0547e-06  Tolerance :   1.0000e-05
  Last Orbital Rotation      ...    5.5284e-06  Tolerance :   1.0000e-05

             **** THE GBW FILE WAS UPDATED (pbeh-3c.gbw) ****
             **** DENSITY pbeh-3c.scfp WAS UPDATED ****
             **** ENERGY FILE WAS UPDATED (pbeh-3c.en.tmp) ****
             **** THE GBW FILE WAS UPDATED (pbeh-3c.gbw) ****
             **** DENSITY pbeh-3c.scfp WAS UPDATED ****
----------------
ORBITAL ENERGIES
----------------

  NO   OCC          E(Eh)            E(eV) 
   0   2.0000     -10.471811      -284.9525 
   1   2.0000     -10.471801      -284.9522 
   2   2.0000     -10.471668      -284.9486 
   3   2.0000     -10.471612      -284.9470 
   4   2.0000     -10.471573      -284.9460 
   5   2.0000     -10.471180      -284.9353 
   6   2.0000     -10.471180      -284.9353 
   7   2.0000     -10.471118      -284.9336 
   8   2.0000     -10.471085      -284.9327 
   9   2.0000     -10.471014      -284.9308 
  10   2.0000     -10.470690      -284.9220 
  11   2.0000     -10.470613      -284.9199 
  12   2.0000     -10.470559      -284.9184 
  13   2.0000     -10.470512      -284.9171 
  14   2.0000     -10.470511      -284.9171 
  15   2.0000     -10.438054      -284.0339 
  16   2.0000     -10.437751      -284.0256 
  17   2.0000     -10.437727      -284.0250 
  18   2.0000     -10.437036      -284.0062 
  19   2.0000     -10.437024      -284.0059 
  20   2.0000      -1.032824       -28.1046 
  21   2.0000      -0.964517       -26.2458 
  22   2.0000      -0.964432       -26.2435 
  23   2.0000      -0.906221       -24.6595 
  24   2.0000      -0.900845       -24.5132 
  25   2.0000      -0.900808       -24.5122 
  26   2.0000      -0.830587       -22.6014 
  27   2.0000      -0.830576       -22.6011 
  28   2.0000      -0.808576       -22.0025 
  29   2.0000      -0.808418       -21.9982 
  30   2.0000      -0.724356       -19.7107 
  31   2.0000      -0.724334       -19.7101 
  32   2.0000      -0.722285       -19.6544 
  33   2.0000      -0.672726       -18.3058 
  34   2.0000      -0.672639       -18.3034 
  35   2.0000      -0.664207       -18.0740 
  36   2.0000      -0.589833       -16.0502 
  37   2.0000      -0.589685       -16.0462 
  38   2.0000      -0.574106       -15.6222 
  39   2.0000      -0.573572       -15.6077 
  40   2.0000      -0.573493       -15.6055 
  41   2.0000      -0.514789       -14.0081 
  42   2.0000      -0.514718       -14.0062 
  43   2.0000      -0.498018       -13.5518 
  44   2.0000      -0.497835       -13.5468 
  45   2.0000      -0.497763       -13.5448 
  46   2.0000      -0.478529       -13.0214 
  47   2.0000      -0.478447       -13.0192 
  48   2.0000      -0.472530       -12.8582 
  49   2.0000      -0.466591       -12.6966 
  50   2.0000      -0.466519       -12.6946 
  51   2.0000      -0.447686       -12.1821 
  52   2.0000      -0.429916       -11.6986 
  53   2.0000      -0.429823       -11.6961 
  54   2.0000      -0.394248       -10.7280 
  55   2.0000      -0.393895       -10.7184 
  56   2.0000      -0.381468       -10.3803 
  57   2.0000      -0.381223       -10.3736 
  58   2.0000      -0.357264        -9.7217 
  59   2.0000      -0.357210        -9.7202 
  60   2.0000      -0.353785        -9.6270 
  61   2.0000      -0.273953        -7.4546 
  62   2.0000      -0.273927        -7.4539 
  63   2.0000      -0.261455        -7.1145 
  64   2.0000      -0.261361        -7.1120 
  65   0.0000      -0.053594        -1.4584 
  66   0.0000      -0.053489        -1.4555 
  67   0.0000       0.014840         0.4038 
  68   0.0000       0.019445         0.5291 
  69   0.0000       0.061605         1.6763 
  70   0.0000       0.061722         1.6795 
  71   0.0000       0.135086         3.6759 
  72   0.0000       0.135250         3.6803 
  73   0.0000       0.154953         4.2165 
  74   0.0000       0.161222         4.3871 
  75   0.0000       0.161307         4.3894 
  76   0.0000       0.174492         4.7482 
  77   0.0000       0.174521         4.7490 
  78   0.0000       0.185364         5.0440 
  79   0.0000       0.185406         5.0452 
  80   0.0000       0.226523         6.1640 
  81   0.0000       0.226542         6.1645 
  82   0.0000       0.232545         6.3279 
  83   0.0000       0.242750         6.6056 
  84   0.0000       0.246923         6.7191 
  85   0.0000       0.247024         6.7219 
  86   0.0000       0.277726         7.5573 
  87   0.0000       0.277792         7.5591 
  88   0.0000       0.283230         7.7071 
  89   0.0000       0.283248         7.7076 
  90   0.0000       0.285904         7.7799 
  91   0.0000       0.286067         7.7843 
  92   0.0000       0.314903         8.5689 
  93   0.0000       0.314973         8.5708 
  94   0.0000       0.331201         9.0124 
  95   0.0000       0.353582         9.6215 
  96   0.0000       0.353718         9.6251 
  97   0.0000       0.404361        11.0032 
  98   0.0000       0.416043        11.3211 
  99   0.0000       0.416209        11.3256 
 100   0.0000       0.450037        12.2461 
 101   0.0000       0.477971        13.0063 
 102   0.0000       0.477980        13.0065 
 103   0.0000       0.493856        13.4385 
 104   0.0000       0.502397        13.6709 
 105   0.0000       0.502518        13.6742 
 106   0.0000       0.517114        14.0714 
 107   0.0000       0.517203        14.0738 
 108   0.0000       0.540850        14.7173 
 109   0.0000       0.540894        14.7185 
 110   0.0000       0.548046        14.9131 
 111   0.0000       0.551956        15.0195 
 112   0.0000       0.551965        15.0197 
 113   0.0000       0.552886        15.0448 
 114   0.0000       0.562350        15.3023 
 115   0.0000       0.562534        15.3073 
 116   0.0000       0.577176        15.7058 
 117   0.0000       0.577440        15.7129 
 118   0.0000       0.577697        15.7199 
 119   0.0000       0.577922        15.7261 
 120   0.0000       0.578139        15.7320 
 121   0.0000       0.601600        16.3704 
 122   0.0000       0.601609        16.3706 
 123   0.0000       0.607282        16.5250 
 124   0.0000       0.607577        16.5330 
 125   0.0000       0.626427        17.0459 
 126   0.0000       0.626434        17.0461 
 127   0.0000       0.627862        17.0850 
 128   0.0000       0.640792        17.4368 
 129   0.0000       0.640893        17.4396 
 130   0.0000       0.654613        17.8129 
 131   0.0000       0.654692        17.8151 
 132   0.0000       0.662599        18.0302 
 133   0.0000       0.671860        18.2822 
 134   0.0000       0.671913        18.2837 
 135   0.0000       0.681730        18.5508 
 136   0.0000       0.712429        19.3862 
 137   0.0000       0.721729        19.6392 
 138   0.0000       0.743676        20.2365 
 139   0.0000       0.743753        20.2385 
 140   0.0000       0.757642        20.6165 
 141   0.0000       0.781894        21.2764 
 142   0.0000       0.782031        21.2801 
 143   0.0000       0.814690        22.1689 
 144   0.0000       0.815069        22.1791 
 145   0.0000       0.824930        22.4475 
 146   0.0000       0.825129        22.4529 
 147   0.0000       0.846818        23.0431 
 148   0.0000       0.846970        23.0472 
 149   0.0000       0.872610        23.7449 
 150   0.0000       0.872689        23.7471 
 151   0.0000       0.933761        25.4089 
 152   0.0000       0.934108        25.4184 
 153   0.0000       0.944858        25.7109 
 154   0.0000       0.945237        25.7212 
 155   0.0000       0.948754        25.8169 
 156   0.0000       0.948819        25.8187 
 157   0.0000       0.950799        25.8725 
 158   0.0000       0.957871        26.0650 
 159   0.0000       0.958255        26.0755 
 160   0.0000       0.969038        26.3689 
 161   0.0000       0.989411        26.9232 
 162   0.0000       0.989427        26.9237 
 163   0.0000       1.002046        27.2671 
 164   0.0000       1.002170        27.2704 
 165   0.0000       1.022743        27.8302 
 166   0.0000       1.029938        28.0260 
 167   0.0000       1.030072        28.0297 
 168   0.0000       1.042061        28.3559 
 169   0.0000       1.042193        28.3595 
 170   0.0000       1.090175        29.6652 
 171   0.0000       1.096723        29.8433 
 172   0.0000       1.096812        29.8458 
 173   0.0000       1.154260        31.4090 
 174   0.0000       1.154354        31.4116 
 175   0.0000       1.177483        32.0409 
 176   0.0000       1.177784        32.0491 
 177   0.0000       1.186753        32.2932 
 178   0.0000       1.196638        32.5622 
 179   0.0000       1.196718        32.5644 
 180   0.0000       1.241178        33.7742 
 181   0.0000       1.244462        33.8635 
 182   0.0000       1.279802        34.8252 
 183   0.0000       1.279855        34.8266 
 184   0.0000       1.296090        35.2684 
 185   0.0000       1.296217        35.2718 
 186   0.0000       1.324159        36.0322 
 187   0.0000       1.324213        36.0337 
 188   0.0000       1.325989        36.0820 
 189   0.0000       1.338442        36.4209 
 190   0.0000       1.338694        36.4277 
 191   0.0000       1.391094        37.8536 
 192   0.0000       1.391612        37.8677 
 193   0.0000       1.430451        38.9246 
 194   0.0000       1.430644        38.9298 
 195   0.0000       1.439260        39.1642 
 196   0.0000       1.439405        39.1682 
 197   0.0000       1.445089        39.3229 
 198   0.0000       1.445462        39.3330 
 199   0.0000       1.452010        39.5112 
 200   0.0000       1.486056        40.4376 
 201   0.0000       1.486426        40.4477 
 202   0.0000       1.526252        41.5314 
 203   0.0000       1.526351        41.5341 
 204   0.0000       1.530207        41.6391 
 205   0.0000       1.530308        41.6418 
 206   0.0000       1.533140        41.7189 
 207   0.0000       1.542851        41.9831 
 208   0.0000       1.542938        41.9855 
 209   0.0000       1.551958        42.2309 
 210   0.0000       1.616188        43.9787 
 211   0.0000       1.616413        43.9848 
 212   0.0000       1.652408        44.9643 
 213   0.0000       1.652625        44.9702 
 214   0.0000       1.711504        46.5724 
 215   0.0000       1.729887        47.0726 
 216   0.0000       1.761896        47.9436 
 217   0.0000       1.762010        47.9467 
 218   0.0000       1.821464        49.5646 
 219   0.0000       1.821492        49.5653 
 220   0.0000       1.821723        49.5716 
 221   0.0000       1.823053        49.6078 
 222   0.0000       1.830695        49.8158 
 223   0.0000       1.830699        49.8158 
 224   0.0000       1.884795        51.2879 
 225   0.0000       1.884984        51.2930 
 226   0.0000       1.888681        51.3936 
 227   0.0000       1.889088        51.4047 
 228   0.0000       1.931344        52.5545 
 229   0.0000       2.008763        54.6612 
 230   0.0000       2.009079        54.6698 
 231   0.0000       2.015022        54.8315 
 232   0.0000       2.015183        54.8359 
 233   0.0000       2.067263        56.2531 
 234   0.0000       2.067586        56.2619 
 235   0.0000       2.084658        56.7264 
 236   0.0000       2.094290        56.9885 
 237   0.0000       2.094847        57.0037 
 238   0.0000       2.130115        57.9634 
 239   0.0000       2.130554        57.9753 
 240   0.0000       2.138501        58.1916 
 241   0.0000       2.139079        58.2073 
 242   0.0000       2.166204        58.9454 
 243   0.0000       2.166652        58.9576 
 244   0.0000       2.230769        60.7023 
 245   0.0000       2.230945        60.7071 
 246   0.0000       2.255490        61.3750 
 247   0.0000       2.257093        61.4186 
 248   0.0000       2.257655        61.4339 
 249   0.0000       2.294095        62.4255 
 250   0.0000       2.297604        62.5210 
 251   0.0000       2.298076        62.5338 
 252   0.0000       2.301151        62.6175 
 253   0.0000       2.301393        62.6241 
 254   0.0000       2.351375        63.9842 
 255   0.0000       2.351500        63.9876 
 256   0.0000       2.355828        64.1053 
 257   0.0000       2.356128        64.1135 
 258   0.0000       2.366088        64.3845 
 259   0.0000       2.366161        64.3865 
 260   0.0000       2.385208        64.9048 
 261   0.0000       2.385914        64.9240 
 262   0.0000       2.431331        66.1599 
 263   0.0000       2.431613        66.1676 
 264   0.0000       2.462749        67.0148 
 265   0.0000       2.499713        68.0206 
 266   0.0000       2.499945        68.0270 
 267   0.0000       2.570800        69.9550 
 268   0.0000       2.611124        71.0523 
 269   0.0000       2.630348        71.5754 
 270   0.0000       2.630662        71.5839 
 271   0.0000       2.642749        71.9128 
 272   0.0000       2.643065        71.9215 
 273   0.0000       2.676853        72.8409 
 274   0.0000       2.677582        72.8607 
 275   0.0000       2.746972        74.7489 
 276   0.0000       2.778799        75.6150 
 277   0.0000       2.779120        75.6237 
 278   0.0000       2.781228        75.6811 
 279   0.0000       2.798087        76.1398 
 280   0.0000       2.798708        76.1567 
 281   0.0000       2.807811        76.4044 
 282   0.0000       2.807831        76.4050 
 283   0.0000       2.839017        77.2536 
 284   0.0000       2.839637        77.2704 
 285   0.0000       2.890014        78.6413 
 286   0.0000       2.890211        78.6466 
 287   0.0000       2.944342        80.1196 
 288   0.0000       2.958058        80.4928 
 289   0.0000       2.958075        80.4933 
 290   0.0000       3.009300        81.8872 
 291   0.0000       3.108538        84.5876 
 292   0.0000       3.108758        84.5936 
 293   0.0000       3.175820        86.4185 
 294   0.0000       3.176323        86.4321 
 295   0.0000       3.439522        93.5942 
 296   0.0000       3.440602        93.6235 
 297   0.0000       3.549958        96.5993 
 298   0.0000       3.550229        96.6067 
 299   0.0000       3.763471       102.4092 
 300   0.0000      13.103734       356.5707 
 301   0.0000      13.471614       366.5813 
 302   0.0000      13.471634       366.5818 
 303   0.0000      13.644724       371.2918 
 304   0.0000      13.644799       371.2939 
 305   0.0000      13.691210       372.5568 
 306   0.0000      13.927831       378.9956 
 307   0.0000      13.928390       379.0108 
 308   0.0000      13.985273       380.5586 
 309   0.0000      13.985424       380.5627 
 310   0.0000      14.113262       384.0414 
 311   0.0000      14.113399       384.0451 
 312   0.0000      14.145901       384.9295 
 313   0.0000      14.326164       389.8347 
 314   0.0000      14.326647       389.8479 
 315   0.0000      14.402815       391.9205 
 316   0.0000      14.467355       393.6767 
 317   0.0000      14.467903       393.6916 
 318   0.0000      14.625479       397.9795 
 319   0.0000      14.625817       397.9887 

                    ********************************
                    * MULLIKEN POPULATION ANALYSIS *
                    ********************************

-----------------------
MULLIKEN ATOMIC CHARGES
-----------------------
   0 C :   -0.342323
   1 C :   -0.342361
   2 C :   -0.342323
   3 C :    0.164706
   4 C :    0.081469
   5 C :    0.163555
   6 C :   -0.342353
   7 C :   -0.342406
   8 C :   -0.342076
   9 C :   -0.342081
  10 C :    0.163234
  11 C :    0.081488
  12 C :    0.081471
  13 C :    0.163249
  14 C :   -0.341923
  15 C :   -0.342405
  16 C :    0.163543
  17 C :    0.083314
  18 C :   -0.341926
  19 C :    0.083308
  20 H :    0.219250
  21 H :    0.219216
  22 H :    0.219395
  23 H :    0.219199
  24 H :    0.219196
  25 H :    0.219393
  26 H :    0.219213
  27 H :    0.219254
  28 H :    0.219363
  29 H :    0.219362
Sum of atomic charges:   -0.0000000

--------------------------------
MULLIKEN REDUCED ORBITAL CHARGES
--------------------------------
  0 C s       :     3.324602  s :     3.324602
      pz      :     1.003846  p :     2.979184
      px      :     0.927189
      py      :     1.048150
      dz2     :     0.003978  d :     0.038537
      dxz     :     0.006575
      dyz     :     0.002120
      dx2y2   :     0.015154
      dxy     :     0.010710
  1 C s       :     3.324476  s :     3.324476
      pz      :     1.004174  p :     2.979369
      px      :     1.027671
      py      :     0.947525
      dz2     :     0.003977  d :     0.038515
      dxz     :     0.003140
      dyz     :     0.005536
      dx2y2   :     0.012418
      dxy     :     0.013443
  2 C s       :     3.324598  s :     3.324598
      pz      :     1.003845  p :     2.979188
      px      :     0.927189
      py      :     1.048153
      dz2     :     0.003978  d :     0.038537
      dxz     :     0.006575
      dyz     :     0.002120
      dx2y2   :     0.015154
      dxy     :     0.010710
  3 C s       :     3.319699  s :     3.319699
      pz      :     0.961451  p :     2.468845
      px      :     0.643594
      py      :     0.863799
      dz2     :     0.003722  d :     0.046750
      dxz     :     0.007063
      dyz     :     0.006398
      dx2y2   :     0.017183
      dxy     :     0.012385
  4 C s       :     3.271673  s :     3.271673
      pz      :     0.984837  p :     2.595980
      px      :     0.924601
      py      :     0.686541
      dz2     :     0.004104  d :     0.050879
      dxz     :     0.006416
      dyz     :     0.008410
      dx2y2   :     0.013624
      dxy     :     0.018324
  5 C s       :     3.320711  s :     3.320711
      pz      :     0.961102  p :     2.469020
      px      :     0.843072
      py      :     0.664846
      dz2     :     0.003721  d :     0.046713
      dxz     :     0.006457
      dyz     :     0.006996
      dx2y2   :     0.015517
      dxy     :     0.014021
  6 C s       :     3.324462  s :     3.324462
      pz      :     1.004174  p :     2.979376
      px      :     1.027674
      py      :     0.947528
      dz2     :     0.003977  d :     0.038515
      dxz     :     0.003141
      dyz     :     0.005536
      dx2y2   :     0.012419
      dxy     :     0.013443
  7 C s       :     3.324339  s :     3.324339
      pz      :     1.004277  p :     2.979538
      px      :     1.045227
      py      :     0.930035
      dz2     :     0.003978  d :     0.038529
      dxz     :     0.001957
      dyz     :     0.006728
      dx2y2   :     0.014820
      dxy     :     0.011046
  8 C s       :     3.324638  s :     3.324638
      pz      :     1.003947  p :     2.978933
      px      :     0.955030
      py      :     1.019956
      dz2     :     0.003977  d :     0.038505
      dxz     :     0.005976
      dyz     :     0.002707
      dx2y2   :     0.011846
      dxy     :     0.014000
  9 C s       :     3.324647  s :     3.324647
      pz      :     1.003945  p :     2.978928
      px      :     0.955030
      py      :     1.019953
      dz2     :     0.003977  d :     0.038506
      dxz     :     0.005976
      dyz     :     0.002707
      dx2y2   :     0.011846
      dxy     :     0.014000
 10 C s       :     3.320298  s :     3.320298
      pz      :     0.961354  p :     2.469745
      px      :     0.721281
      py      :     0.787110
      dz2     :     0.003721  d :     0.046723
      dxz     :     0.006814
      dyz     :     0.006639
      dx2y2   :     0.012845
      dxy     :     0.016704
 11 C s       :     3.271428  s :     3.271428
      pz      :     0.984960  p :     2.596245
      px      :     0.843727
      py      :     0.767557
      dz2     :     0.004102  d :     0.050840
      dxz     :     0.007090
      dyz     :     0.007720
      dx2y2   :     0.017880
      dxy     :     0.014047
 12 C s       :     3.271433  s :     3.271433
      pz      :     0.984959  p :     2.596256
      px      :     0.843713
      py      :     0.767583
      dz2     :     0.004102  d :     0.050840
      dxz     :     0.007091
      dyz     :     0.007720
      dx2y2   :     0.017880
      dxy     :     0.014047
 13 C s       :     3.320295  s :     3.320295
      pz      :     0.961356  p :     2.469732
      px      :     0.721265
      py      :     0.787111
      dz2     :     0.003721  d :     0.046723
      dxz     :     0.006814
      dyz     :     0.006639
      dx2y2   :     0.012845
      dxy     :     0.016704
 14 C s       :     3.324343  s :     3.324343
      pz      :     1.003879  p :     2.979057
      px      :     0.982826
      py      :     0.992352
      dz2     :     0.003978  d :     0.038523
      dxz     :     0.004078
      dyz     :     0.004609
      dx2y2   :     0.010393
      dxy     :     0.015466
 15 C s       :     3.324333  s :     3.324333
      pz      :     1.004277  p :     2.979544
      px      :     1.045232
      py      :     0.930034
      dz2     :     0.003978  d :     0.038528
      dxz     :     0.001957
      dyz     :     0.006727
      dx2y2   :     0.014819
      dxy     :     0.011046
 16 C s       :     3.320708  s :     3.320708
      pz      :     0.961101  p :     2.469037
      px      :     0.843076
      py      :     0.664860
      dz2     :     0.003721  d :     0.046712
      dxz     :     0.006457
      dyz     :     0.006996
      dx2y2   :     0.015517
      dxy     :     0.014021
 17 C s       :     3.271052  s :     3.271052
      pz      :     0.985228  p :     2.594803
      px      :     0.706190
      py      :     0.903385
      dz2     :     0.004101  d :     0.050831
      dxz     :     0.008220
      dyz     :     0.006581
      dx2y2   :     0.015229
      dxy     :     0.016701
 18 C s       :     3.324332  s :     3.324332
      pz      :     1.003879  p :     2.979071
      px      :     0.982837
      py      :     0.992354
      dz2     :     0.003978  d :     0.038523
      dxz     :     0.004078
      dyz     :     0.004609
      dx2y2   :     0.010393
      dxy     :     0.015466
 19 C s       :     3.271054  s :     3.271054
      pz      :     0.985228  p :     2.594807
      px      :     0.706189
      py      :     0.903389
      dz2     :     0.004101  d :     0.050831
      dxz     :     0.008220
      dyz     :     0.006581
      dx2y2   :     0.015229
      dxy     :     0.016700
 20 H s       :     0.780750  s :     0.780750
 21 H s       :     0.780784  s :     0.780784
 22 H s       :     0.780605  s :     0.780605
 23 H s       :     0.780801  s :     0.780801
 24 H s       :     0.780804  s :     0.780804
 25 H s       :     0.780607  s :     0.780607
 26 H s       :     0.780787  s :     0.780787
 27 H s       :     0.780746  s :     0.780746
 28 H s       :     0.780637  s :     0.780637
 29 H s       :     0.780638  s :     0.780638


                     *******************************
                     * LOEWDIN POPULATION ANALYSIS *
                     *******************************

----------------------
LOEWDIN ATOMIC CHARGES
----------------------
   0 C :   -0.116628
   1 C :   -0.116821
   2 C :   -0.116627
   3 C :   -0.031363
   4 C :   -0.013705
   5 C :   -0.031076
   6 C :   -0.116820
   7 C :   -0.116882
   8 C :   -0.116708
   9 C :   -0.116707
  10 C :   -0.031280
  11 C :   -0.013763
  12 C :   -0.013762
  13 C :   -0.031280
  14 C :   -0.116628
  15 C :   -0.116883
  16 C :   -0.031076
  17 C :   -0.013859
  18 C :   -0.116628
  19 C :   -0.013857
  20 H :    0.139195
  21 H :    0.139188
  22 H :    0.139275
  23 H :    0.139217
  24 H :    0.139216
  25 H :    0.139276
  26 H :    0.139188
  27 H :    0.139194
  28 H :    0.139302
  29 H :    0.139302

-------------------------------
LOEWDIN REDUCED ORBITAL CHARGES
-------------------------------
  0 C s       :     2.902976  s :     2.902976
      pz      :     0.995645  p :     3.129947
      px      :     1.053236
      py      :     1.081066
      dz2     :     0.006028  d :     0.083705
      dxz     :     0.013051
      dyz     :     0.003105
      dx2y2   :     0.034555
      dxy     :     0.026966
  1 C s       :     2.903206  s :     2.903206
      pz      :     0.996005  p :     3.129993
      px      :     1.084557
      py      :     1.049431
      dz2     :     0.006024  d :     0.083621
      dxz     :     0.005158
      dyz     :     0.010951
      dx2y2   :     0.029793
      dxy     :     0.031695
  2 C s       :     2.902974  s :     2.902974
      pz      :     0.995644  p :     3.129948
      px      :     1.053236
      py      :     1.081067
      dz2     :     0.006028  d :     0.083706
      dxz     :     0.013051
      dyz     :     0.003106
      dx2y2   :     0.034556
      dxy     :     0.026966
  3 C s       :     2.838413  s :     2.838413
      pz      :     0.952074  p :     3.082557
      px      :     1.047333
      py      :     1.083150
      dz2     :     0.006899  d :     0.110392
      dxz     :     0.013485
      dyz     :     0.012672
      dx2y2   :     0.043678
      dxy     :     0.033658
  4 C s       :     2.805951  s :     2.805951
      pz      :     0.967783  p :     3.080495
      px      :     1.047574
      py      :     1.065138
      dz2     :     0.007862  d :     0.127259
      dxz     :     0.013354
      dyz     :     0.016645
      dx2y2   :     0.038260
      dxy     :     0.051137
  5 C s       :     2.838805  s :     2.838805
      pz      :     0.951820  p :     3.082061
      px      :     1.079624
      py      :     1.050618
      dz2     :     0.006889  d :     0.110211
      dxz     :     0.012731
      dyz     :     0.013392
      dx2y2   :     0.040161
      dxy     :     0.037038
  6 C s       :     2.903204  s :     2.903204
      pz      :     0.996005  p :     3.129994
      px      :     1.084558
      py      :     1.049431
      dz2     :     0.006024  d :     0.083621
      dxz     :     0.005158
      dyz     :     0.010951
      dx2y2   :     0.029794
      dxy     :     0.031694
  7 C s       :     2.903067  s :     2.903067
      pz      :     0.996078  p :     3.130149
      px      :     1.072312
      py      :     1.061758
      dz2     :     0.006027  d :     0.083666
      dxz     :     0.002961
      dyz     :     0.013169
      dx2y2   :     0.034058
      dxy     :     0.027452
  8 C s       :     2.903094  s :     2.903094
      pz      :     0.995755  p :     3.129991
      px      :     1.072656
      py      :     1.061580
      dz2     :     0.006024  d :     0.083623
      dxz     :     0.011355
      dyz     :     0.004772
      dx2y2   :     0.028950
      dxy     :     0.032522
  9 C s       :     2.903093  s :     2.903093
      pz      :     0.995753  p :     3.129991
      px      :     1.072657
      py      :     1.061581
      dz2     :     0.006024  d :     0.083624
      dxz     :     0.011355
      dyz     :     0.004772
      dx2y2   :     0.028951
      dxy     :     0.032522
 10 C s       :     2.838664  s :     2.838664
      pz      :     0.952018  p :     3.082329
      px      :     1.059604
      py      :     1.070707
      dz2     :     0.006892  d :     0.110287
      dxz     :     0.013161
      dyz     :     0.012970
      dx2y2   :     0.034619
      dxy     :     0.042645
 11 C s       :     2.806035  s :     2.806035
      pz      :     0.967937  p :     3.080573
      px      :     1.053637
      py      :     1.058999
      dz2     :     0.007857  d :     0.127155
      dxz     :     0.014459
      dyz     :     0.015506
      dx2y2   :     0.049923
      dxy     :     0.039411
 12 C s       :     2.806036  s :     2.806036
      pz      :     0.967935  p :     3.080572
      px      :     1.053638
      py      :     1.058998
      dz2     :     0.007857  d :     0.127155
      dxz     :     0.014459
      dyz     :     0.015506
      dx2y2   :     0.049922
      dxy     :     0.039412
 13 C s       :     2.838663  s :     2.838663
      pz      :     0.952020  p :     3.082330
      px      :     1.059603
      py      :     1.070708
      dz2     :     0.006892  d :     0.110287
      dxz     :     0.013161
      dyz     :     0.012970
      dx2y2   :     0.034619
      dxy     :     0.042645
 14 C s       :     2.903171  s :     2.903171
      pz      :     0.995724  p :     3.129812
      px      :     1.052827
      py      :     1.081260
      dz2     :     0.006025  d :     0.083645
      dxz     :     0.007832
      dyz     :     0.008302
      dx2y2   :     0.026363
      dxy     :     0.035124
 15 C s       :     2.903070  s :     2.903070
      pz      :     0.996079  p :     3.130147
      px      :     1.072312
      py      :     1.061756
      dz2     :     0.006027  d :     0.083666
      dxz     :     0.002961
      dyz     :     0.013169
      dx2y2   :     0.034057
      dxy     :     0.027452
 16 C s       :     2.838806  s :     2.838806
      pz      :     0.951819  p :     3.082060
      px      :     1.079624
      py      :     1.050617
      dz2     :     0.006889  d :     0.110210
      dxz     :     0.012731
      dyz     :     0.013391
      dx2y2   :     0.040160
      dxy     :     0.037037
 17 C s       :     2.806011  s :     2.806011
      pz      :     0.968193  p :     3.080723
      px      :     1.063412
      py      :     1.049118
      dz2     :     0.007856  d :     0.127124
      dxz     :     0.016333
      dyz     :     0.013611
      dx2y2   :     0.042655
      dxy     :     0.046669
 18 C s       :     2.903170  s :     2.903170
      pz      :     0.995725  p :     3.129812
      px      :     1.052827
      py      :     1.081261
      dz2     :     0.006025  d :     0.083646
      dxz     :     0.007832
      dyz     :     0.008302
      dx2y2   :     0.026363
      dxy     :     0.035124
 19 C s       :     2.806012  s :     2.806012
      pz      :     0.968193  p :     3.080721
      px      :     1.063411
      py      :     1.049117
      dz2     :     0.007856  d :     0.127124
      dxz     :     0.016333
      dyz     :     0.013611
      dx2y2   :     0.042655
      dxy     :     0.046668
 20 H s       :     0.860805  s :     0.860805
 21 H s       :     0.860812  s :     0.860812
 22 H s       :     0.860725  s :     0.860725
 23 H s       :     0.860783  s :     0.860783
 24 H s       :     0.860784  s :     0.860784
 25 H s       :     0.860724  s :     0.860724
 26 H s       :     0.860812  s :     0.860812
 27 H s       :     0.860806  s :     0.860806
 28 H s       :     0.860698  s :     0.860698
 29 H s       :     0.860698  s :     0.860698


                      *****************************
                      * MAYER POPULATION ANALYSIS *
                      *****************************

  NA   - Mulliken gross atomic population
  ZA   - Total nuclear charge
  QA   - Mulliken gross atomic charge
  VA   - Mayer's total valence
  BVA  - Mayer's bonded valence
  FA   - Mayer's free valence

  ATOM       NA         ZA         QA         VA         BVA        FA
  0 C      6.3423     6.0000    -0.3423     3.7744     3.7744     0.0000
  1 C      6.3424     6.0000    -0.3424     3.7748     3.7748    -0.0000
  2 C      6.3423     6.0000    -0.3423     3.7745     3.7745     0.0000
  3 C      5.8353     6.0000     0.1647     3.5135     3.5135    -0.0000
  4 C      5.9185     6.0000     0.0815     3.5297     3.5297    -0.0000
  5 C      5.8364     6.0000     0.1636     3.5134     3.5134    -0.0000
  6 C      6.3424     6.0000    -0.3424     3.7748     3.7748    -0.0000
  7 C      6.3424     6.0000    -0.3424     3.7751     3.7751     0.0000
  8 C      6.3421     6.0000    -0.3421     3.7743     3.7743     0.0000
  9 C      6.3421     6.0000    -0.3421     3.7743     3.7743     0.0000
 10 C      5.8368     6.0000     0.1632     3.5141     3.5141     0.0000
 11 C      5.9185     6.0000     0.0815     3.5293     3.5293     0.0000
 12 C      5.9185     6.0000     0.0815     3.5293     3.5293    -0.0000
 13 C      5.8368     6.0000     0.1632     3.5140     3.5140    -0.0000
 14 C      6.3419     6.0000    -0.3419     3.7752     3.7752    -0.0000
 15 C      6.3424     6.0000    -0.3424     3.7751     3.7751    -0.0000
 16 C      5.8365     6.0000     0.1635     3.5134     3.5134    -0.0000
 17 C      5.9167     6.0000     0.0833     3.5252     3.5252    -0.0000
 18 C      6.3419     6.0000    -0.3419     3.7752     3.7752     0.0000
 19 C      5.9167     6.0000     0.0833     3.5252     3.5252     0.0000
 20 H      0.7808     1.0000     0.2192     0.9164     0.9164     0.0000
 21 H      0.7808     1.0000     0.2192     0.9164     0.9164    -0.0000
 22 H      0.7806     1.0000     0.2194     0.9164     0.9164    -0.0000
 23 H      0.7808     1.0000     0.2192     0.9165     0.9165    -0.0000
 24 H      0.7808     1.0000     0.2192     0.9165     0.9165     0.0000
 25 H      0.7806     1.0000     0.2194     0.9164     0.9164    -0.0000
 26 H      0.7808     1.0000     0.2192     0.9164     0.9164    -0.0000
 27 H      0.7807     1.0000     0.2193     0.9164     0.9164     0.0000
 28 H      0.7806     1.0000     0.2194     0.9164     0.9164     0.0000
 29 H      0.7806     1.0000     0.2194     0.9164     0.9164     0.0000

  Mayer bond orders larger than 0.100000
B(  0-C ,  1-C ) :   1.6459 B(  0-C ,  3-C ) :   1.1336 B(  0-C , 24-H ) :   0.9261 
B(  1-C ,  5-C ) :   1.1336 B(  1-C , 25-H ) :   0.9260 B(  2-C ,  3-C ) :   1.1336 
B(  2-C ,  6-C ) :   1.6459 B(  2-C , 23-H ) :   0.9261 B(  3-C ,  4-C ) :   1.2812 
B(  4-C , 17-C ) :   1.1696 B(  4-C , 19-C ) :   1.1696 B(  5-C ,  7-C ) :   1.1337 
B(  5-C , 19-C ) :   1.2805 B(  6-C , 16-C ) :   1.1336 B(  6-C , 22-H ) :   0.9260 
B(  7-C , 18-C ) :   1.6464 B(  7-C , 26-H ) :   0.9260 B(  8-C ,  9-C ) :   1.6453 
B(  8-C , 10-C ) :   1.1340 B(  8-C , 28-H ) :   0.9261 B(  9-C , 13-C ) :   1.1340 
B(  9-C , 29-H ) :   0.9261 B( 10-C , 11-C ) :   1.2812 B( 10-C , 18-C ) :   1.1337 
B( 11-C , 12-C ) :   1.1711 B( 11-C , 19-C ) :   1.1681 B( 12-C , 13-C ) :   1.2812 
B( 12-C , 17-C ) :   1.1681 B( 13-C , 14-C ) :   1.1337 B( 14-C , 15-C ) :   1.6464 
B( 14-C , 20-H ) :   0.9260 B( 15-C , 16-C ) :   1.1337 B( 15-C , 21-H ) :   0.9260 
B( 16-C , 17-C ) :   1.2805 B( 18-C , 27-H ) :   0.9260 

-------
TIMINGS
-------

Total SCF time: 0 days 0 hours 4 min 36 sec 

Total time                  ....     276.538 sec
Sum of individual times     ....     271.461 sec  ( 98.2%)

Fock matrix formation       ....     248.606 sec  ( 89.9%)
  Split-RI-J                ....      17.522 sec  (  7.0% of F)
  Chain of spheres X        ....     186.153 sec  ( 74.9% of F)
  XC integration            ....      34.942 sec  ( 14.1% of F)
    Basis function eval.    ....      10.559 sec  ( 30.2% of XC)
    Density eval.           ....       7.238 sec  ( 20.7% of XC)
    XC-Functional eval.     ....       2.274 sec  (  6.5% of XC)
    XC-Potential eval.      ....       4.871 sec  ( 13.9% of XC)
Diagonalization             ....       1.030 sec  (  0.4%)
Density matrix formation    ....       0.228 sec  (  0.1%)
Population analysis         ....       0.046 sec  (  0.0%)
Initial guess               ....       0.160 sec  (  0.1%)
Orbital Transformation      ....       0.000 sec  (  0.0%)
Orbital Orthonormalization  ....       0.000 sec  (  0.0%)
DIIS solution               ....       3.032 sec  (  1.1%)
SOSCF solution              ....       2.291 sec  (  0.8%)
Grid generation             ....      16.068 sec  (  5.8%)

Maximum memory used throughout the entire SCF-calculation: 98.3 MB


-------------------------------------------------------------------------------
                          DFT DISPERSION CORRECTION                            
                                                                               
                              DFTD3 V3.1  Rev 1                                
                          USING Becke-Johnson damping                          
-------------------------------------------------------------------------------
The PBEh-3c composite method is recognized
Using three-body term ABC
Active option DFTDOPT                   ...         4   

molecular C6(AA) [au] = 13289.932345 


            DFT-D V3
 parameters
 s6 scaling factor         :     1.0000 
 a1 scaling factor         :     0.4860 
 s8 scaling factor         :     0.0000 
 a2 scaling factor         :     4.5000 
 Damping factor alpha9(ATM):    16.0000 
 ad hoc parameters k1-k3   :    16.0000     1.3333    -4.0000 

 Edisp/kcal,au: -15.911246390063  -0.025356182417 
 E6   /kcal   : -15.901227760 
 E8   /kcal   :  -0.000000000 
 E6(ABC)      :  -0.010018630 
 % E8         :   0.000000000 
 % E6(ABC)    :   0.062965715 

-------------------------   ----------------
Dispersion correction           -0.025356182
-------------------------   ----------------

------------------   -----------------
gCP correction             0.036737215
------------------   -----------------

-------------------------   --------------------
FINAL SINGLE POINT ENERGY      -766.439343500064
-------------------------   --------------------


                            ***************************************
                            *     ORCA property calculations      *
                            ***************************************

                                    ---------------------
                                    Active property flags
                                    ---------------------
   (+) Dipole Moment


------------------------------------------------------------------------------
                       ORCA ELECTRIC PROPERTIES CALCULATION
------------------------------------------------------------------------------

Dipole Moment Calculation                       ... on
Quadrupole Moment Calculation                   ... off
Polarizability Calculation                      ... off
GBWName                                         ... pbeh-3c.gbw
Electron density                                ... pbeh-3c.scfp
The origin for moment calculation is the CENTER OF MASS  = ( 0.000001,  0.000029 -0.000005)

-------------
DIPOLE MOMENT
-------------
                                X             Y             Z
Electronic contribution:      0.00000      -0.00002      -0.00007
Nuclear contribution   :     -0.00001      -0.00047       0.00009
                        -----------------------------------------
Total Dipole Moment    :     -0.00001      -0.00049       0.00001
                        -----------------------------------------
Magnitude (a.u.)       :      0.00049
Magnitude (Debye)      :      0.00125



--------------------
Rotational spectrum 
--------------------
 
Rotational constants in cm-1:     0.016668     0.016657     0.008331 
Rotational constants in MHz :   499.698008   499.372214   249.767529 

 Dipole components along the rotational axes: 
x,y,z [a.u.] :    -0.000493    -0.000005     0.000012 
x,y,z [Debye]:    -0.001253    -0.000013     0.000030 

 

Timings for individual modules:

Sum of individual times         ...      281.867 sec (=   4.698 min)
GTO integral calculation        ...        4.444 sec (=   0.074 min)   1.6 %
SCF iterations                  ...      277.423 sec (=   4.624 min)  98.4 %
                             ****ORCA TERMINATED NORMALLY****
TOTAL RUN TIME: 0 days 0 hours 4 minutes 43 seconds 131 msec
