
                                 *****************
                                 * O   R   C   A *
                                 *****************

                                            #,                                       
                                            ###                                      
                                            ####                                     
                                            #####                                    
                                            ######                                   
                                           ########,                                 
                                     ,,################,,,,,                         
                               ,,#################################,,                 
                          ,,##########################################,,             
                       ,#########################################, ''#####,          
                    ,#############################################,,   '####,        
                  ,##################################################,,,,####,       
                ,###########''''           ''''###############################       
              ,#####''   ,,,,##########,,,,          '''####'''          '####       
            ,##' ,,,,###########################,,,                        '##       
           ' ,,###''''                  '''############,,,                           
         ,,##''                                '''############,,,,        ,,,,,,###''
      ,#''                                            '''#######################'''  
     '                                                          ''''####''''         
             ,#######,   #######,   ,#######,      ##                                
            ,#'     '#,  ##    ##  ,#'     '#,    #''#        ######   ,####,        
            ##       ##  ##   ,#'  ##            #'  '#       #        #'  '#        
            ##       ##  #######   ##           ,######,      #####,   #    #        
            '#,     ,#'  ##    ##  '#,     ,#' ,#      #,         ##   #,  ,#        
             '#######'   ##     ##  '#######'  #'      '#     #####' # '####'        



                  #######################################################
                  #                        -***-                        #
                  #          Department of theory and spectroscopy      #
                  #    Directorship and core code : Frank Neese         #
                  #        Max Planck Institute fuer Kohlenforschung    #
                  #                Kaiser Wilhelm Platz 1               #
                  #                 D-45470 Muelheim/Ruhr               #
                  #                      Germany                        #
                  #                                                     #
                  #                  All rights reserved                #
                  #                        -***-                        #
                  #######################################################


                         Program Version 5.0.3 -  RELEASE  -


 With contributions from (in alphabetic order):
   Daniel Aravena         : Magnetic Suceptibility
   Michael Atanasov       : Ab Initio Ligand Field Theory (pilot matlab implementation)
   Alexander A. Auer      : GIAO ZORA, VPT2 properties, NMR spectrum
   Ute Becker             : Parallelization
   Giovanni Bistoni       : ED, misc. LED, open-shell LED, HFLD
   Martin Brehm           : Molecular dynamics
   Dmytro Bykov           : SCF Hessian
   Vijay G. Chilkuri      : MRCI spin determinant printing, contributions to CSF-ICE
   Dipayan Datta          : RHF DLPNO-CCSD density
   Achintya Kumar Dutta   : EOM-CC, STEOM-CC
   Dmitry Ganyushin       : Spin-Orbit,Spin-Spin,Magnetic field MRCI
   Miquel Garcia          : C-PCM and meta-GGA Hessian, CC/C-PCM, Gaussian charge scheme
   Yang Guo               : DLPNO-NEVPT2, F12-NEVPT2, CIM, IAO-localization
   Andreas Hansen         : Spin unrestricted coupled pair/coupled cluster methods
   Benjamin Helmich-Paris : MC-RPA, TRAH-SCF, COSX integrals
   Lee Huntington         : MR-EOM, pCC
   Robert Izsak           : Overlap fitted RIJCOSX, COSX-SCS-MP3, EOM
   Marcus Kettner         : VPT2
   Christian Kollmar      : KDIIS, OOCD, Brueckner-CCSD(T), CCSD density, CASPT2, CASPT2-K
   Simone Kossmann        : Meta GGA functionals, TD-DFT gradient, OOMP2, MP2 Hessian
   Martin Krupicka        : Initial AUTO-CI
   Lucas Lang             : DCDCAS
   Marvin Lechner         : AUTO-CI (C++ implementation), FIC-MRCC
   Dagmar Lenk            : GEPOL surface, SMD
   Dimitrios Liakos       : Extrapolation schemes; Compound Job, initial MDCI parallelization
   Dimitrios Manganas     : Further ROCIS development; embedding schemes
   Dimitrios Pantazis     : SARC Basis sets
   Anastasios Papadopoulos: AUTO-CI, single reference methods and gradients
   Taras Petrenko         : DFT Hessian,TD-DFT gradient, ASA, ECA, R-Raman, ABS, FL, XAS/XES, NRVS
   Peter Pinski           : DLPNO-MP2, DLPNO-MP2 Gradient
   Christoph Reimann      : Effective Core Potentials
   Marius Retegan         : Local ZFS, SOC
   Christoph Riplinger    : Optimizer, TS searches, QM/MM, DLPNO-CCSD(T), (RO)-DLPNO pert. Triples
   Tobias Risthaus        : Range-separated hybrids, TD-DFT gradient, RPA, STAB
   Michael Roemelt        : Original ROCIS implementation
   Masaaki Saitow         : Open-shell DLPNO-CCSD energy and density
   Barbara Sandhoefer     : DKH picture change effects
   Avijit Sen             : IP-ROCIS
   Kantharuban Sivalingam : CASSCF convergence, NEVPT2, FIC-MRCI
   Bernardo de Souza      : ESD, SOC TD-DFT
   Georgi Stoychev        : AutoAux, RI-MP2 NMR, DLPNO-MP2 response
   Willem Van den Heuvel  : Paramagnetic NMR
   Boris Wezisla          : Elementary symmetry handling
   Frank Wennmohs         : Technical directorship


 We gratefully acknowledge several colleagues who have allowed us to
 interface, adapt or use parts of their codes:
   Stefan Grimme, W. Hujo, H. Kruse, P. Pracht,  : VdW corrections, initial TS optimization,
                  C. Bannwarth, S. Ehlert          DFT functionals, gCP, sTDA/sTD-DF
   Ed Valeev, F. Pavosevic, A. Kumar             : LibInt (2-el integral package), F12 methods
   Garnet Chan, S. Sharma, J. Yang, R. Olivares  : DMRG
   Ulf Ekstrom                                   : XCFun DFT Library
   Mihaly Kallay                                 : mrcc  (arbitrary order and MRCC methods)
   Jiri Pittner, Ondrej Demel                    : Mk-CCSD
   Frank Weinhold                                : gennbo (NPA and NBO analysis)
   Christopher J. Cramer and Donald G. Truhlar   : smd solvation model
   Lars Goerigk                                  : TD-DFT with DH, B97 family of functionals
   V. Asgeirsson, H. Jonsson                     : NEB implementation
   FAccTs GmbH                                   : IRC, NEB, NEB-TS, DLPNO-Multilevel, CI-OPT
                                                   MM, QMMM, 2- and 3-layer-ONIOM, Crystal-QMMM,
                                                   LR-CPCM, SF, NACMEs, symmetry and pop. for TD-DFT,
                                                   nearIR, NL-DFT gradient (VV10), updates on ESD,
                                                   ML-optimized integration grids
   S Lehtola, MJT Oliveira, MAL Marques          : LibXC Library
   Liviu Ungur et al                             : ANISO software


 Your calculation uses the libint2 library for the computation of 2-el integrals
 For citations please refer to: http://libint.valeyev.net

 Your ORCA version has been built with support for libXC version: 5.1.0
 For citations please refer to: https://tddft.org/programs/libxc/

 This ORCA versions uses:
   CBLAS   interface :  Fast vector & matrix operations
   LAPACKE interface :  Fast linear algebra routines
   SCALAPACK package :  Parallel linear algebra routines
   Shared memory     :  Shared parallel matrices
   BLAS/LAPACK       :  OpenBLAS 0.3.15  USE64BITINT DYNAMIC_ARCH NO_AFFINITY Haswell SINGLE_THREADED
        Core in use  :  Haswell
   Copyright (c) 2011-2014, The OpenBLAS Project




***************************************
The coordinates will be read from file: nh3_2.xyz
***************************************


Your calculation utilizes the geometrical counterpoise correction gCP
Please cite in your paper:
H.Kruse, S. Grimme J.Chem.Phys., 136, (2012), 154101 
   

Your calculation utilizes the atom-pairwise dispersion correction
with the Becke-Johnson damping scheme (D3BJ)
Cite in your paper:
S.Grimme, S.Ehrlich, L.Goerigk, J Comput Chem, (2011), 32, 1456–1465 
S.Grimme, J.Antony, S.Ehrlich and H.Krieg, J.Chem.Phys., 132, (2010), 154104 
   

Your calculation employs the composite approach PBEh-3c.
Please cite in your paper:
S. Grimme, J. G. Brandenburg, C. Bannwarth, A. Hansen J.Chem.Phys., 143, (2015), 054107 
   

================================================================================

----- Orbital basis set information -----
Your calculation utilizes the basis: def2-mSVP

----- AuxJ basis set information -----
Your calculation utilizes the auxiliary basis: def2/J
   F. Weigend, Phys. Chem. Chem. Phys. 8, 1057 (2006).

================================================================================
                                        WARNINGS
                       Please study these warnings very carefully!
================================================================================


INFO   : the flag for use of the SHARK integral package has been found!

================================================================================
                                       INPUT FILE
================================================================================
NAME = pbeh-3c.inp
|  1> ! PBEh-3c def2/J TightSCF DefGrid3
|  2> 
|  3> %maxcore 60000
|  4> 
|  5> %pal
|  6> nprocs 4
|  7> end
|  8> 
|  9> *xyzfile 0 1 nh3_2.xyz
| 10> 
| 11>                          ****END OF INPUT****
================================================================================

                       ****************************
                       * Single Point Calculation *
                       ****************************

---------------------------------
CARTESIAN COORDINATES (ANGSTROEM)
---------------------------------
  H     -0.155611    0.718127    0.000000
  H     -0.421026    2.115582    0.813988
  H     -0.255988   -2.122455    0.815316
  H      1.046178   -1.572039    0.000000
  N      0.033104    1.718343    0.000000
  N      0.033104   -1.594392    0.000000
  H     -0.255988   -2.122455   -0.815316
  H     -0.421026    2.115582   -0.813988

----------------------------
CARTESIAN COORDINATES (A.U.)
----------------------------
  NO LB      ZA    FRAG     MASS         X           Y           Z
   0 H     1.0000    0     1.008   -0.294062    1.357063    0.000000
   1 H     1.0000    0     1.008   -0.795624    3.997870    1.538214
   2 H     1.0000    0     1.008   -0.483747   -4.010858    1.540724
   3 H     1.0000    0     1.008    1.976990   -2.970723    0.000000
   4 N     7.0000    0    14.007    0.062557    3.247197    0.000000
   5 N     7.0000    0    14.007    0.062557   -3.012964    0.000000
   6 H     1.0000    0     1.008   -0.483747   -4.010858   -1.540724
   7 H     1.0000    0     1.008   -0.795624    3.997870   -1.538214

--------------------------------
INTERNAL COORDINATES (ANGSTROEM)
--------------------------------
 H      0   0   0     0.000000000000     0.00000000     0.00000000
 H      1   0   0     1.638872057577     0.00000000     0.00000000
 H      1   2   0     2.956978179374   132.58508530     0.00000000
 H      3   1   2     1.631972337660    60.73630781   229.09950735
 N      2   1   3     1.013217203723    36.30222278   158.45297382
 N      4   3   1     1.013320474218    36.37476893   310.85715501
 H      6   4   3     1.013491306136   107.25757549   245.21406446
 H      5   2   1     1.013217203723   106.90618206   115.31774050

---------------------------
INTERNAL COORDINATES (A.U.)
---------------------------
 H      0   0   0     0.000000000000     0.00000000     0.00000000
 H      1   0   0     3.097019357356     0.00000000     0.00000000
 H      1   2   0     5.587878942999   132.58508530     0.00000000
 H      3   1   2     3.083980776313    60.73630781   229.09950735
 N      2   1   3     1.914703029213    36.30222278   158.45297382
 N      4   3   1     1.914898182168    36.37476893   310.85715501
 H      6   4   3     1.915221007707   107.25757549   245.21406446
 H      5   2   1     1.914703029213   106.90618206   115.31774050

---------------------
BASIS SET INFORMATION
---------------------
There are 2 groups of distinct atoms

 Group   1 Type H   : 4s contracted to 2s pattern {31}
 Group   2 Type N   : 8s4p1d contracted to 4s2p1d pattern {5111/31/1}

Atom   0H    basis set group =>   1
Atom   1H    basis set group =>   1
Atom   2H    basis set group =>   1
Atom   3H    basis set group =>   1
Atom   4N    basis set group =>   2
Atom   5N    basis set group =>   2
Atom   6H    basis set group =>   1
Atom   7H    basis set group =>   1
---------------------------------
AUXILIARY/J BASIS SET INFORMATION
---------------------------------
There are 2 groups of distinct atoms

 Group   1 Type H   : 5s2p1d contracted to 3s1p1d pattern {311/2/1}
 Group   2 Type N   : 12s5p4d2f1g contracted to 6s4p3d1f1g pattern {711111/2111/211/2/1}

Atom   0H    basis set group =>   1
Atom   1H    basis set group =>   1
Atom   2H    basis set group =>   1
Atom   3H    basis set group =>   1
Atom   4N    basis set group =>   2
Atom   5N    basis set group =>   2
Atom   6H    basis set group =>   1
Atom   7H    basis set group =>   1


           ************************************************************
           *        Program running with 4 parallel MPI-processes     *
           *              working on a common directory               *
           ************************************************************
------------------------------------------------------------------------------
                           ORCA GTO INTEGRAL CALCULATION
                           -- RI-GTO INTEGRALS CHOSEN --
------------------------------------------------------------------------------
------------------------------------------------------------------------------
                   ___                                                        
                  /   \      - P O W E R E D   B Y -                         
                 /     \                                                     
                 |  |  |   _    _      __       _____    __    __             
                 |  |  |  | |  | |    /  \     |  _  \  |  |  /  |          
                  \  \/   | |  | |   /    \    | | | |  |  | /  /          
                 / \  \   | |__| |  /  /\  \   | |_| |  |  |/  /          
                |  |  |   |  __  | /  /__\  \  |    /   |      \           
                |  |  |   | |  | | |   __   |  |    \   |  |\   \          
                \     /   | |  | | |  |  |  |  | |\  \  |  | \   \       
                 \___/    |_|  |_| |__|  |__|  |_| \__\ |__|  \__/        
                                                                              
                      - O R C A' S   B I G   F R I E N D -                    
                                      &                                       
                       - I N T E G R A L  F E E D E R -                       
                                                                              
 v1 FN, 2020, v2 2021                                                         
------------------------------------------------------------------------------


Reading SHARK input file pbeh-3c.SHARKINP.tmp ... ok
----------------------
SHARK INTEGRAL PACKAGE
----------------------

Number of atoms                             ...      8
Number of basis functions                   ...     42
Number of shells                            ...     26
Maximum angular momentum                    ...      2
Integral batch strategy                     ... SHARK/LIBINT Hybrid
RI-J (if used) integral strategy            ... SPLIT-RIJ (Revised 2003 algorithm where possible)
Printlevel                                  ...      1
Contraction scheme used                     ... SEGMENTED contraction
Coulomb Range Separation                    ... NOT USED
Exchange Range Separation                   ... NOT USED
Finite Nucleus Model                        ... NOT USED
Auxiliary Coulomb fitting basis             ... AVAILABLE
   # of basis functions in Aux-J            ...    164
   # of shells in Aux-J                     ...     60
   Maximum angular momentum in Aux-J        ...      4
Auxiliary J/K fitting basis                 ... NOT available
Auxiliary Correlation fitting basis         ... NOT available
Auxiliary 'external' fitting basis          ... NOT available
Integral threshold                          ...     2.500000e-11
Primitive cut-off                           ...     2.500000e-12
Primitive pair pre-selection threshold      ...     2.500000e-12

Calculating pre-screening integrals         ... done (  0.1 sec) Dimension = 26
Organizing shell pair data                  ... done (  0.3 sec)
Shell pair information
Total number of shell pairs                 ...       351
Shell pairs after pre-screening             ...       330
Total number of primitive shell pairs       ...      1319
Primitive shell pairs kept                  ...       962
          la=0 lb=0:    193 shell pairs
          la=1 lb=0:     78 shell pairs
          la=1 lb=1:     10 shell pairs
          la=2 lb=0:     38 shell pairs
          la=2 lb=1:      8 shell pairs
          la=2 lb=2:      3 shell pairs

Calculating one electron integrals          ... done (  0.0 sec)
Calculating RI/J V-Matrix + Cholesky decomp.... done (  0.4 sec)
Calculating Nuclear repulsion               ... done (  0.1 sec) ENN=     39.484779194342 Eh

SHARK setup successfully completed in   1.9 seconds

Maximum memory used throughout the entire GTOINT-calculation: 9.0 MB


           ************************************************************
           *        Program running with 4 parallel MPI-processes     *
           *              working on a common directory               *
           ************************************************************
-------------------------------------------------------------------------------
                                 ORCA SCF
-------------------------------------------------------------------------------

------------
SCF SETTINGS
------------
Hamiltonian:
 Density Functional     Method          .... DFT(GTOs)
 Exchange Functional    Exchange        .... PBE
   PBE kappa parameter   XKappa         ....  1.024500
   PBE mue parameter    XMuePBE         ....  0.123457
 Correlation Functional Correlation     .... PBE
   PBE beta parameter  CBetaPBE         ....  0.030000
 LDA part of GGA corr.  LDAOpt          .... PW91-LDA
 Gradients option       PostSCFGGA      .... off
 Hybrid DFT is turned on
   Fraction HF Exchange ScalHFX         ....  0.420000
   Scaling of DF-GGA-X  ScalDFX         ....  0.580000
   Scaling of DF-GGA-C  ScalDFC         ....  1.000000
   Scaling of DF-LDA-C  ScalLDAC        ....  1.000000
   Perturbative correction              ....  0.000000
   Density functional embedding theory  .... OFF
 RI-approximation to the Coulomb term is turned on
   Number of AuxJ basis functions       .... 164
   RIJ-ON(X) (HFX calculated with O(N)) .... on
   Number of AuxJ basis functions       .... 164
   RIJ-COSX (HFX calculated with COS-X)).... on


General Settings:
 Integral files         IntName         .... pbeh-3c
 Hartree-Fock type      HFTyp           .... RHF
 Total Charge           Charge          ....    0
 Multiplicity           Mult            ....    1
 Number of Electrons    NEL             ....   20
 Basis Dimension        Dim             ....   42
 Nuclear Repulsion      ENuc            ....     39.4847791943 Eh

Convergence Acceleration:
 DIIS                   CNVDIIS         .... on
   Start iteration      DIISMaxIt       ....    12
   Startup error        DIISStart       ....  0.200000
   # of expansion vecs  DIISMaxEq       ....     5
   Bias factor          DIISBfac        ....   1.050
   Max. coefficient     DIISMaxC        ....  10.000
 Trust-Rad. Augm. Hess. CNVTRAH         .... auto
   Auto Start mean grad. ratio tolernc. ....  1.125000
   Auto Start start iteration           ....    20
   Auto Start num. interpolation iter.  ....    10
   Max. Number of Micro iterations      ....    16
   Max. Number of Macro iterations      .... Maxiter - #DIIS iter
   Number of Davidson start vectors     ....     2
   Converg. threshold I  (grad. norm)   ....   1.000e-05
   Converg. threshold II (energy diff.) ....   1.000e-08
   Grad. Scal. Fac. for Micro threshold ....   0.100
   Minimum threshold for Micro iter.    ....   0.010
   NR start threshold (gradient norm)   ....   0.001
   Initial trust radius                 ....   0.400
   Minimum AH scaling param. (alpha)    ....   1.000
   Maximum AH scaling param. (alpha)    .... 1000.000
   Orbital update algorithm             .... Taylor
   White noise on init. David. guess    .... on
   Maximum white noise                  ....   0.010
   Quad. conv. algorithm                .... NR
   COSX micro iterations for RIJONX calc.... off
 SOSCF                  CNVSOSCF        .... on
   Start iteration      SOSCFMaxIt      ....   150
   Startup grad/error   SOSCFStart      ....  0.003300
 Level Shifting         CNVShift        .... on
   Level shift para.    LevelShift      ....    0.2500
   Turn off err/grad.   ShiftErr        ....    0.0010
 Zerner damping         CNVZerner       .... off
 Static damping         CNVDamp         .... on
   Fraction old density DampFac         ....    0.7000
   Max. Damping (<1)    DampMax         ....    0.9800
   Min. Damping (>=0)   DampMin         ....    0.0000
   Turn off err/grad.   DampErr         ....    0.1000
 Fernandez-Rico         CNVRico         .... off

SCF Procedure:
 Maximum # iterations   MaxIter         ....   125
 SCF integral mode      SCFMode         .... Direct
   Integral package                     .... SHARK and LIBINT hybrid scheme
 Reset frequency        DirectResetFreq ....    20
 Integral Threshold     Thresh          ....  2.500e-11 Eh
 Primitive CutOff       TCut            ....  2.500e-12 Eh

Convergence Tolerance:
 Convergence Check Mode ConvCheckMode   .... Total+1el-Energy
 Convergence forced     ConvForced      .... 0
 Energy Change          TolE            ....  1.000e-08 Eh
 1-El. energy change                    ....  1.000e-05 Eh
 Orbital Gradient       TolG            ....  1.000e-05
 Orbital Rotation angle TolX            ....  1.000e-05
 DIIS Error             TolErr          ....  5.000e-07


Diagonalization of the overlap matrix:
Smallest eigenvalue                        ... 3.529e-02
Time for diagonalization                   ...    0.001 sec
Threshold for overlap eigenvalues          ... 1.000e-08
Number of eigenvalues below threshold      ... 0
Time for construction of square roots      ...    0.198 sec
Total time needed                          ...    0.200 sec

--------------------------------
INITIAL GUESS: MINIMAL BASIS EHT
--------------------------------
The minimal basis has 16 functions
EHT matrix was diagonalized
Basis set overlap was calculated now projecting the orbitals
Using GuessMode=FMatrix for the initial guess
C*T matrix was formed
Effective Fockian was calculated
Effective Fockian was diagonalized
Initial density was built
                      ------------------
                      INITIAL GUESS DONE
                      ------------------
-------------------
DFT GRID GENERATION
-------------------

General Integration Accuracy     IntAcc      ... 4.959
Radial Grid Type                 RadialGrid  ... OptM3 with GC (2021)
Angular Grid (max. ang.)         AngularGrid ... 6 (Lebedev-590)
Angular grid pruning method      GridPruning ... 4 (adaptive)
Weight generation scheme         WeightScheme... Becke
Basis function cutoff            BFCut       ... 1.0000e-11
Integration weight cutoff        WCut        ... 1.0000e-14
Angular grids for H and He will be reduced by one unit
Partially contracted basis set               ... off
Rotationally invariant grid construction     ... off

Total number of grid points                  ...    83007
Total number of batches                      ...     1301
Average number of points per batch           ...       63
Average number of grid points per atom       ...    10376
Time for grid setup =    1.694 sec

--------------------
COSX GRID GENERATION
--------------------

GRIDX 1
-------
General Integration Accuracy     IntAcc      ... 4.020
Radial Grid Type                 RadialGrid  ... OptM3 with GC (2021)
Angular Grid (max. ang.)         AngularGrid ... 2 (Lebedev-110)
Angular grid pruning method      GridPruning ... 4 (adaptive)
Weight generation scheme         WeightScheme... Becke
Basis function cutoff            BFCut       ... 1.0000e-11
Integration weight cutoff        WCut        ... 1.0000e-14
Angular grids for H and He will be reduced by one unit
Partially contracted basis set               ... on
Rotationally invariant grid construction     ... off

Total number of grid points                  ...     8511
Total number of batches                      ...      138
Average number of points per batch           ...       61
Average number of grid points per atom       ...     1064
UseSFitting                                  ... on

GRIDX 2
-------
General Integration Accuracy     IntAcc      ... 4.338
Radial Grid Type                 RadialGrid  ... OptM3 with GC (2021)
Angular Grid (max. ang.)         AngularGrid ... 3 (Lebedev-194)
Angular grid pruning method      GridPruning ... 4 (adaptive)
Weight generation scheme         WeightScheme... Becke
Basis function cutoff            BFCut       ... 1.0000e-11
Integration weight cutoff        WCut        ... 1.0000e-14
Angular grids for H and He will be reduced by one unit
Partially contracted basis set               ... on
Rotationally invariant grid construction     ... off

Total number of grid points                  ...    18662
Total number of batches                      ...      295
Average number of points per batch           ...       63
Average number of grid points per atom       ...     2333
UseSFitting                                  ... on

GRIDX 3
-------
General Integration Accuracy     IntAcc      ... 4.871
Radial Grid Type                 RadialGrid  ... OptM3 with GC (2021)
Angular Grid (max. ang.)         AngularGrid ... 4 (Lebedev-302)
Angular grid pruning method      GridPruning ... 4 (adaptive)
Weight generation scheme         WeightScheme... Becke
Basis function cutoff            BFCut       ... 1.0000e-11
Integration weight cutoff        WCut        ... 1.0000e-14
Angular grids for H and He will be reduced by one unit
Partially contracted basis set               ... on
Rotationally invariant grid construction     ... off

Total number of grid points                  ...    38558
Total number of batches                      ...      606
Average number of points per batch           ...       63
Average number of grid points per atom       ...     4820
UseSFitting                                  ... on

Time for X-Grid setup             =    2.933 sec

--------------
SCF ITERATIONS
--------------
ITER       Energy         Delta-E        Max-DP      RMS-DP      [F,P]     Damp
               ***  Starting incremental Fock matrix formation  ***
  0   -112.5434090513   0.000000000000 0.16013850  0.00771430  0.3846210 0.7000
  1   -112.6524018276  -0.108992776356 0.10119227  0.00494518  0.2237575 0.7000
                               ***Turning on DIIS***
  2   -112.7159490633  -0.063547235642 0.06158828  0.00313264  0.1458580 0.7000
  3   -112.7590615460  -0.043112482726 0.03614624  0.00217296  0.1008527 0.7000
  4   -112.7897799577  -0.030718411684 0.09730915  0.00590874  0.0710357 0.0000
  5   -112.8648340176  -0.075054059913 0.01229935  0.00084633  0.0118451 0.0000
  6   -112.8650918588  -0.000257841180 0.00391698  0.00033841  0.0034060 0.0000
                      *** Initiating the SOSCF procedure ***
                           *** Shutting down DIIS ***
                      *** Re-Reading the Fockian *** 
                      *** Removing any level shift *** 
ITER      Energy       Delta-E        Grad      Rot      Max-DP    RMS-DP
  7   -112.86515265  -0.0000607927  0.001190  0.001190  0.005377  0.000381
               *** Restarting incremental Fock matrix formation ***
  8   -112.86515011   0.0000025411  0.000133  0.000292  0.000587  0.000039
  9   -112.86515033  -0.0000002174  0.000052  0.000146  0.000256  0.000020
 10   -112.86515036  -0.0000000311  0.000032  0.000041  0.000080  0.000006
                 **** Energy Check signals convergence ****
              ***Rediagonalizing the Fockian in SOSCF/NRSCF***

               *****************************************************
               *                     SUCCESS                       *
               *           SCF CONVERGED AFTER  11 CYCLES          *
               *****************************************************

Old exchange energy                            =     -6.448946316 Eh
New exchange energy                            =     -6.448949964 Eh
Exchange energy change after final integration =     -0.000003648 Eh
Total energy after final integration           =   -112.865154016 Eh
Final COS-X integration done in                =     0.560 sec

----------------
TOTAL SCF ENERGY
----------------

Total Energy       :         -112.86515402 Eh           -3071.21698 eV

Components:
Nuclear Repulsion  :           39.48477919 Eh            1074.43547 eV
Electronic Energy  :         -152.34993321 Eh           -4145.65244 eV
One Electron Energy:         -230.77234143 Eh           -6279.63466 eV
Two Electron Energy:           78.42240822 Eh            2133.98222 eV
Max COSX asymmetry :            0.00000076 Eh               0.00002 eV

Virial components:
Potential Energy   :         -224.96850478 Eh           -6121.70424 eV
Kinetic Energy     :          112.10335076 Eh            3050.48726 eV
Virial Ratio       :            2.00679554


DFT components:
N(Alpha)           :        9.999999954427 electrons
N(Beta)            :        9.999999954427 electrons
N(Total)           :       19.999999908853 electrons
E(X)               :       -8.565225502144 Eh       
E(C)               :       -0.844827321191 Eh       
E(XC)              :       -9.410052823335 Eh       
DFET-embed. en.    :        0.000000000000 Eh       

---------------
SCF CONVERGENCE
---------------

  Last Energy change         ...   -9.0809e-09  Tolerance :   1.0000e-08
  Last MAX-Density change    ...    5.5511e-16  Tolerance :   1.0000e-07
  Last RMS-Density change    ...    4.2022e-17  Tolerance :   5.0000e-09
  Last Orbital Gradient      ...    1.6067e-06  Tolerance :   1.0000e-05
  Last Orbital Rotation      ...    1.4991e-06  Tolerance :   1.0000e-05

             **** THE GBW FILE WAS UPDATED (pbeh-3c.gbw) ****
             **** DENSITY pbeh-3c.scfp WAS UPDATED ****
             **** ENERGY FILE WAS UPDATED (pbeh-3c.en.tmp) ****
             **** THE GBW FILE WAS UPDATED (pbeh-3c.gbw) ****
             **** DENSITY pbeh-3c.scfp WAS UPDATED ****
----------------
ORBITAL ENERGIES
----------------

  NO   OCC          E(Eh)            E(eV) 
   0   2.0000     -14.612382      -397.6231 
   1   2.0000     -14.565117      -396.3370 
   2   2.0000      -0.948343       -25.8057 
   3   2.0000      -0.902781       -24.5659 
   4   2.0000      -0.525205       -14.2916 
   5   2.0000      -0.525185       -14.2910 
   6   2.0000      -0.483465       -13.1557 
   7   2.0000      -0.480067       -13.0633 
   8   2.0000      -0.322288        -8.7699 
   9   2.0000      -0.276654        -7.5281 
  10   0.0000       0.127937         3.4813 
  11   0.0000       0.178136         4.8473 
  12   0.0000       0.214216         5.8291 
  13   0.0000       0.217569         5.9204 
  14   0.0000       0.246876         6.7178 
  15   0.0000       0.299295         8.1442 
  16   0.0000       0.736424        20.0391 
  17   0.0000       0.741260        20.1707 
  18   0.0000       0.790218        21.5029 
  19   0.0000       0.801075        21.7984 
  20   0.0000       0.847261        23.0551 
  21   0.0000       0.907838        24.7035 
  22   0.0000       1.010025        27.4842 
  23   0.0000       1.034314        28.1451 
  24   0.0000       1.036349        28.2005 
  25   0.0000       1.061002        28.8713 
  26   0.0000       1.076303        29.2877 
  27   0.0000       1.155024        31.4298 
  28   0.0000       1.408334        38.3227 
  29   0.0000       1.586488        43.1705 
  30   0.0000       1.722167        46.8626 
  31   0.0000       1.745508        47.4977 
  32   0.0000       1.768028        48.1105 
  33   0.0000       1.768391        48.1204 
  34   0.0000       2.044929        55.6453 
  35   0.0000       2.103180        57.2304 
  36   0.0000       2.486918        67.6725 
  37   0.0000       2.494755        67.8857 
  38   0.0000       2.532837        68.9220 
  39   0.0000       2.535330        68.9898 
  40   0.0000      18.977197       516.3958 
  41   0.0000      19.097224       519.6619 

                    ********************************
                    * MULLIKEN POPULATION ANALYSIS *
                    ********************************

-----------------------
MULLIKEN ATOMIC CHARGES
-----------------------
   0 H :    0.353507
   1 H :    0.300369
   2 H :    0.324678
   3 H :    0.331911
   4 N :   -0.983848
   5 N :   -0.951662
   6 H :    0.324678
   7 H :    0.300369
Sum of atomic charges:   -0.0000000

--------------------------------
MULLIKEN REDUCED ORBITAL CHARGES
--------------------------------
  0 H s       :     0.646493  s :     0.646493
  1 H s       :     0.699631  s :     0.699631
  2 H s       :     0.675322  s :     0.675322
  3 H s       :     0.668089  s :     0.668089
  4 N s       :     3.668882  s :     3.668882
      pz      :     1.196799  p :     4.283196
      px      :     1.801750
      py      :     1.284647
      dz2     :     0.004235  d :     0.031771
      dxz     :     0.012310
      dyz     :     0.003008
      dx2y2   :     0.005993
      dxy     :     0.006225
  5 N s       :     3.667301  s :     3.667301
      pz      :     1.221805  p :     4.252608
      px      :     1.318247
      py      :     1.712556
      dz2     :     0.004406  d :     0.031753
      dxz     :     0.000569
      dyz     :     0.014595
      dx2y2   :     0.010026
      dxy     :     0.002156
  6 H s       :     0.675322  s :     0.675322
  7 H s       :     0.699631  s :     0.699631


                     *******************************
                     * LOEWDIN POPULATION ANALYSIS *
                     *******************************

----------------------
LOEWDIN ATOMIC CHARGES
----------------------
   0 H :    0.224517
   1 H :    0.209049
   2 H :    0.221508
   3 H :    0.226149
   4 N :   -0.673568
   5 N :   -0.638213
   6 H :    0.221508
   7 H :    0.209049

-------------------------------
LOEWDIN REDUCED ORBITAL CHARGES
-------------------------------
  0 H s       :     0.775483  s :     0.775483
  1 H s       :     0.790951  s :     0.790951
  2 H s       :     0.778492  s :     0.778492
  3 H s       :     0.773851  s :     0.773851
  4 N s       :     3.313545  s :     3.313545
      pz      :     1.222699  p :     4.314650
      px      :     1.805558
      py      :     1.286393
      dz2     :     0.007616  d :     0.045372
      dxz     :     0.015984
      dyz     :     0.006636
      dx2y2   :     0.008065
      dxy     :     0.007072
  5 N s       :     3.311686  s :     3.311686
      pz      :     1.237549  p :     4.280899
      px      :     1.328670
      py      :     1.714680
      dz2     :     0.007868  d :     0.045629
      dxz     :     0.002568
      dyz     :     0.019483
      dx2y2   :     0.013440
      dxy     :     0.002270
  6 H s       :     0.778492  s :     0.778492
  7 H s       :     0.790951  s :     0.790951


                      *****************************
                      * MAYER POPULATION ANALYSIS *
                      *****************************

  NA   - Mulliken gross atomic population
  ZA   - Total nuclear charge
  QA   - Mulliken gross atomic charge
  VA   - Mayer's total valence
  BVA  - Mayer's bonded valence
  FA   - Mayer's free valence

  ATOM       NA         ZA         QA         VA         BVA        FA
  0 H      0.6465     1.0000     0.3535     0.8694     0.8694    -0.0000
  1 H      0.6996     1.0000     0.3004     0.8781     0.8781    -0.0000
  2 H      0.6753     1.0000     0.3247     0.8637     0.8637    -0.0000
  3 H      0.6681     1.0000     0.3319     0.8597     0.8597    -0.0000
  4 N      7.9838     7.0000    -0.9838     2.6039     2.6039    -0.0000
  5 N      7.9517     7.0000    -0.9517     2.6807     2.6807    -0.0000
  6 H      0.6753     1.0000     0.3247     0.8637     0.8637    -0.0000
  7 H      0.6996     1.0000     0.3004     0.8781     0.8781     0.0000

  Mayer bond orders larger than 0.100000
B(  0-H ,  4-N ) :   0.8210 B(  1-H ,  4-N ) :   0.8883 B(  2-H ,  5-N ) :   0.8734 
B(  3-H ,  5-N ) :   0.8691 B(  4-N ,  7-H ) :   0.8883 B(  5-N ,  6-H ) :   0.8734 


-------
TIMINGS
-------

Total SCF time: 0 days 0 hours 0 min 41 sec 

Total time                  ....      41.329 sec
Sum of individual times     ....      34.892 sec  ( 84.4%)

Fock matrix formation       ....      26.183 sec  ( 63.4%)
  Split-RI-J                ....       2.981 sec  ( 11.4% of F)
  Chain of spheres X        ....       4.139 sec  ( 15.8% of F)
  XC integration            ....       9.409 sec  ( 35.9% of F)
    Basis function eval.    ....       0.529 sec  (  5.6% of XC)
    Density eval.           ....       0.464 sec  (  4.9% of XC)
    XC-Functional eval.     ....       0.721 sec  (  7.7% of XC)
    XC-Potential eval.      ....       0.096 sec  (  1.0% of XC)
Diagonalization             ....       0.458 sec  (  1.1%)
Density matrix formation    ....       0.170 sec  (  0.4%)
Population analysis         ....       1.405 sec  (  3.4%)
Initial guess               ....       0.002 sec  (  0.0%)
Orbital Transformation      ....       0.000 sec  (  0.0%)
Orbital Orthonormalization  ....       0.000 sec  (  0.0%)
DIIS solution               ....       1.584 sec  (  3.8%)
SOSCF solution              ....       0.462 sec  (  1.1%)
Grid generation             ....       4.626 sec  ( 11.2%)

Maximum memory used throughout the entire SCF-calculation: 45.6 MB


-------------------------------------------------------------------------------
                          DFT DISPERSION CORRECTION                            
                                                                               
                              DFTD3 V3.1  Rev 1                                
                          USING Becke-Johnson damping                          
-------------------------------------------------------------------------------
The PBEh-3c composite method is recognized
Using three-body term ABC
Active option DFTDOPT                   ...         4   

molecular C6(AA) [au] = 338.642510 


            DFT-D V3
 parameters
 s6 scaling factor         :     1.0000 
 a1 scaling factor         :     0.4860 
 s8 scaling factor         :     0.0000 
 a2 scaling factor         :     4.5000 
 Damping factor alpha9(ATM):    16.0000 
 ad hoc parameters k1-k3   :    16.0000     1.3333    -4.0000 

 Edisp/kcal,au: -0.885405291248  -0.001410982995 
 E6   /kcal   :  -0.886509814 
 E8   /kcal   :  -0.000000000 
 E6(ABC)      :   0.001104523 
 % E8         :   0.000000000 
 % E6(ABC)    :  -0.124747737 

-------------------------   ----------------
Dispersion correction           -0.001410983
-------------------------   ----------------

------------------   -----------------
gCP correction             0.003244250
------------------   -----------------

-------------------------   --------------------
FINAL SINGLE POINT ENERGY      -112.863320748262
-------------------------   --------------------


                            ***************************************
                            *     ORCA property calculations      *
                            ***************************************

                                    ---------------------
                                    Active property flags
                                    ---------------------
   (+) Dipole Moment


------------------------------------------------------------------------------
                       ORCA ELECTRIC PROPERTIES CALCULATION
------------------------------------------------------------------------------

Dipole Moment Calculation                       ... on
Quadrupole Moment Calculation                   ... off
Polarizability Calculation                      ... off
GBWName                                         ... pbeh-3c.gbw
Electron density                                ... pbeh-3c.scfp
The origin for moment calculation is the CENTER OF MASS  = ( 0.025532,  0.047800  0.000000)

-------------
DIPOLE MOMENT
-------------
                                X             Y             Z
Electronic contribution:      0.09500      -0.08973      -0.00000
Nuclear contribution   :     -0.51065      -0.95600       0.00000
                        -----------------------------------------
Total Dipole Moment    :     -0.41564      -1.04573      -0.00000
                        -----------------------------------------
Magnitude (a.u.)       :      1.12531
Magnitude (Debye)      :      2.86030



--------------------
Rotational spectrum 
--------------------
 
Rotational constants in cm-1:     3.960424     0.169082     0.167245 
Rotational constants in MHz : 118730.534351  5068.955887  5013.878431 

 Dipole components along the rotational axes: 
x,y,z [a.u.] :    -1.034957    -0.000000     0.441788 
x,y,z [Debye]:    -2.630652    -0.000000     1.122937 

 

Timings for individual modules:

Sum of individual times         ...       44.986 sec (=   0.750 min)
GTO integral calculation        ...        2.741 sec (=   0.046 min)   6.1 %
SCF iterations                  ...       42.245 sec (=   0.704 min)  93.9 %
                             ****ORCA TERMINATED NORMALLY****
TOTAL RUN TIME: 0 days 0 hours 0 minutes 54 seconds 19 msec
