
                                 *****************
                                 * O   R   C   A *
                                 *****************

                                            #,                                       
                                            ###                                      
                                            ####                                     
                                            #####                                    
                                            ######                                   
                                           ########,                                 
                                     ,,################,,,,,                         
                               ,,#################################,,                 
                          ,,##########################################,,             
                       ,#########################################, ''#####,          
                    ,#############################################,,   '####,        
                  ,##################################################,,,,####,       
                ,###########''''           ''''###############################       
              ,#####''   ,,,,##########,,,,          '''####'''          '####       
            ,##' ,,,,###########################,,,                        '##       
           ' ,,###''''                  '''############,,,                           
         ,,##''                                '''############,,,,        ,,,,,,###''
      ,#''                                            '''#######################'''  
     '                                                          ''''####''''         
             ,#######,   #######,   ,#######,      ##                                
            ,#'     '#,  ##    ##  ,#'     '#,    #''#        ######   ,####,        
            ##       ##  ##   ,#'  ##            #'  '#       #        #'  '#        
            ##       ##  #######   ##           ,######,      #####,   #    #        
            '#,     ,#'  ##    ##  '#,     ,#' ,#      #,         ##   #,  ,#        
             '#######'   ##     ##  '#######'  #'      '#     #####' # '####'        



                  #######################################################
                  #                        -***-                        #
                  #          Department of theory and spectroscopy      #
                  #    Directorship and core code : Frank Neese         #
                  #        Max Planck Institute fuer Kohlenforschung    #
                  #                Kaiser Wilhelm Platz 1               #
                  #                 D-45470 Muelheim/Ruhr               #
                  #                      Germany                        #
                  #                                                     #
                  #                  All rights reserved                #
                  #                        -***-                        #
                  #######################################################


                         Program Version 5.0.3 -  RELEASE  -


 With contributions from (in alphabetic order):
   Daniel Aravena         : Magnetic Suceptibility
   Michael Atanasov       : Ab Initio Ligand Field Theory (pilot matlab implementation)
   Alexander A. Auer      : GIAO ZORA, VPT2 properties, NMR spectrum
   Ute Becker             : Parallelization
   Giovanni Bistoni       : ED, misc. LED, open-shell LED, HFLD
   Martin Brehm           : Molecular dynamics
   Dmytro Bykov           : SCF Hessian
   Vijay G. Chilkuri      : MRCI spin determinant printing, contributions to CSF-ICE
   Dipayan Datta          : RHF DLPNO-CCSD density
   Achintya Kumar Dutta   : EOM-CC, STEOM-CC
   Dmitry Ganyushin       : Spin-Orbit,Spin-Spin,Magnetic field MRCI
   Miquel Garcia          : C-PCM and meta-GGA Hessian, CC/C-PCM, Gaussian charge scheme
   Yang Guo               : DLPNO-NEVPT2, F12-NEVPT2, CIM, IAO-localization
   Andreas Hansen         : Spin unrestricted coupled pair/coupled cluster methods
   Benjamin Helmich-Paris : MC-RPA, TRAH-SCF, COSX integrals
   Lee Huntington         : MR-EOM, pCC
   Robert Izsak           : Overlap fitted RIJCOSX, COSX-SCS-MP3, EOM
   Marcus Kettner         : VPT2
   Christian Kollmar      : KDIIS, OOCD, Brueckner-CCSD(T), CCSD density, CASPT2, CASPT2-K
   Simone Kossmann        : Meta GGA functionals, TD-DFT gradient, OOMP2, MP2 Hessian
   Martin Krupicka        : Initial AUTO-CI
   Lucas Lang             : DCDCAS
   Marvin Lechner         : AUTO-CI (C++ implementation), FIC-MRCC
   Dagmar Lenk            : GEPOL surface, SMD
   Dimitrios Liakos       : Extrapolation schemes; Compound Job, initial MDCI parallelization
   Dimitrios Manganas     : Further ROCIS development; embedding schemes
   Dimitrios Pantazis     : SARC Basis sets
   Anastasios Papadopoulos: AUTO-CI, single reference methods and gradients
   Taras Petrenko         : DFT Hessian,TD-DFT gradient, ASA, ECA, R-Raman, ABS, FL, XAS/XES, NRVS
   Peter Pinski           : DLPNO-MP2, DLPNO-MP2 Gradient
   Christoph Reimann      : Effective Core Potentials
   Marius Retegan         : Local ZFS, SOC
   Christoph Riplinger    : Optimizer, TS searches, QM/MM, DLPNO-CCSD(T), (RO)-DLPNO pert. Triples
   Tobias Risthaus        : Range-separated hybrids, TD-DFT gradient, RPA, STAB
   Michael Roemelt        : Original ROCIS implementation
   Masaaki Saitow         : Open-shell DLPNO-CCSD energy and density
   Barbara Sandhoefer     : DKH picture change effects
   Avijit Sen             : IP-ROCIS
   Kantharuban Sivalingam : CASSCF convergence, NEVPT2, FIC-MRCI
   Bernardo de Souza      : ESD, SOC TD-DFT
   Georgi Stoychev        : AutoAux, RI-MP2 NMR, DLPNO-MP2 response
   Willem Van den Heuvel  : Paramagnetic NMR
   Boris Wezisla          : Elementary symmetry handling
   Frank Wennmohs         : Technical directorship


 We gratefully acknowledge several colleagues who have allowed us to
 interface, adapt or use parts of their codes:
   Stefan Grimme, W. Hujo, H. Kruse, P. Pracht,  : VdW corrections, initial TS optimization,
                  C. Bannwarth, S. Ehlert          DFT functionals, gCP, sTDA/sTD-DF
   Ed Valeev, F. Pavosevic, A. Kumar             : LibInt (2-el integral package), F12 methods
   Garnet Chan, S. Sharma, J. Yang, R. Olivares  : DMRG
   Ulf Ekstrom                                   : XCFun DFT Library
   Mihaly Kallay                                 : mrcc  (arbitrary order and MRCC methods)
   Jiri Pittner, Ondrej Demel                    : Mk-CCSD
   Frank Weinhold                                : gennbo (NPA and NBO analysis)
   Christopher J. Cramer and Donald G. Truhlar   : smd solvation model
   Lars Goerigk                                  : TD-DFT with DH, B97 family of functionals
   V. Asgeirsson, H. Jonsson                     : NEB implementation
   FAccTs GmbH                                   : IRC, NEB, NEB-TS, DLPNO-Multilevel, CI-OPT
                                                   MM, QMMM, 2- and 3-layer-ONIOM, Crystal-QMMM,
                                                   LR-CPCM, SF, NACMEs, symmetry and pop. for TD-DFT,
                                                   nearIR, NL-DFT gradient (VV10), updates on ESD,
                                                   ML-optimized integration grids
   S Lehtola, MJT Oliveira, MAL Marques          : LibXC Library
   Liviu Ungur et al                             : ANISO software


 Your calculation uses the libint2 library for the computation of 2-el integrals
 For citations please refer to: http://libint.valeyev.net

 Your ORCA version has been built with support for libXC version: 5.1.0
 For citations please refer to: https://tddft.org/programs/libxc/

 This ORCA versions uses:
   CBLAS   interface :  Fast vector & matrix operations
   LAPACKE interface :  Fast linear algebra routines
   SCALAPACK package :  Parallel linear algebra routines
   Shared memory     :  Shared parallel matrices
   BLAS/LAPACK       :  OpenBLAS 0.3.15  USE64BITINT DYNAMIC_ARCH NO_AFFINITY Haswell SINGLE_THREADED
        Core in use  :  Haswell
   Copyright (c) 2011-2014, The OpenBLAS Project




***************************************
The coordinates will be read from file: 20.xyz
***************************************


Your calculation utilizes the geometrical counterpoise correction gCP
Please cite in your paper:
H.Kruse, S. Grimme J.Chem.Phys., 136, (2012), 154101 
   

Your calculation utilizes the atom-pairwise dispersion correction
with the Becke-Johnson damping scheme (D3BJ)
Cite in your paper:
S.Grimme, S.Ehrlich, L.Goerigk, J Comput Chem, (2011), 32, 1456–1465 
S.Grimme, J.Antony, S.Ehrlich and H.Krieg, J.Chem.Phys., 132, (2010), 154104 
   

Your calculation employs the composite approach PBEh-3c.
Please cite in your paper:
S. Grimme, J. G. Brandenburg, C. Bannwarth, A. Hansen J.Chem.Phys., 143, (2015), 054107 
   

================================================================================

----- Orbital basis set information -----
Your calculation utilizes the basis: def2-mSVP

----- AuxJ basis set information -----
Your calculation utilizes the auxiliary basis: def2/J
   F. Weigend, Phys. Chem. Chem. Phys. 8, 1057 (2006).

================================================================================
                                        WARNINGS
                       Please study these warnings very carefully!
================================================================================


INFO   : the flag for use of the SHARK integral package has been found!

================================================================================
                                       INPUT FILE
================================================================================
NAME = pbeh-3c.inp
|  1> ! PBEh-3c def2/J TightSCF DefGrid3
|  2> 
|  3> %maxcore 60000
|  4> 
|  5> %pal
|  6> nprocs 4
|  7> end
|  8> 
|  9> *xyzfile 0 1 20.xyz
| 10> 
| 11>                          ****END OF INPUT****
================================================================================

                       ****************************
                       * Single Point Calculation *
                       ****************************

---------------------------------
CARTESIAN COORDINATES (ANGSTROEM)
---------------------------------
  N     -0.356468    2.833918    0.190429
  C      0.692664    2.082837    0.672576
  C      0.318506    0.758702    0.756530
  C     -1.037857    0.692226    0.290719
  C     -1.952874   -0.374353    0.144611
  C     -3.221607   -0.087986   -0.337294
  C     -3.594731    1.236582   -0.675919
  C     -2.713139    2.290973   -0.537587
  C     -1.429173    2.006711   -0.051724
  H     -0.337664    3.826234    0.042170
  H      1.634855    2.545338    0.918920
  H     -1.660534   -1.379374    0.410762
  H     -4.597323    1.397430   -1.046858
  H     -3.013174    3.297640   -0.798298
  O     -4.210712   -1.015709   -0.530076
  C     -3.886608   -2.355904   -0.203763
  H     -3.630809   -2.456482    0.853525
  H     -3.057106   -2.723238   -0.812527
  H     -4.776536   -2.940246   -0.416853
  C      1.181897   -0.392430    1.166267
  C      1.732359   -1.152149   -0.054076
  N      2.536231   -0.312836   -0.924029
  C      3.861258   -0.009327   -0.743882
  C      4.657444   -0.941483    0.148935
  H      0.613473   -1.089642    1.788660
  H      2.019044   -0.032747    1.768611
  H      0.900936   -1.543564   -0.642058
  H      2.328567   -2.004624    0.266800
  H      2.040063    0.403013   -1.434364
  O      4.380370    0.941613   -1.311210
  H      4.600924   -1.969083   -0.209297
  H      4.287147   -0.921758    1.173978
  H      5.690575   -0.610290    0.136317

----------------------------
CARTESIAN COORDINATES (A.U.)
----------------------------
  NO LB      ZA    FRAG     MASS         X           Y           Z
   0 N     7.0000    0    14.007   -0.673626    5.355329    0.359859
   1 C     6.0000    0    12.011    1.308946    3.935992    1.270985
   2 C     6.0000    0    12.011    0.601889    1.433739    1.429635
   3 C     6.0000    0    12.011   -1.961265    1.308118    0.549379
   4 C     6.0000    0    12.011   -3.690396   -0.707424    0.273275
   5 C     6.0000    0    12.011   -6.087956   -0.166269   -0.637393
   6 C     6.0000    0    12.011   -6.793058    2.336802   -1.277301
   7 C     6.0000    0    12.011   -5.127089    4.329312   -1.015892
   8 C     6.0000    0    12.011   -2.700745    3.792134   -0.097744
   9 H     1.0000    0     1.008   -0.638092    7.230534    0.079690
  10 H     1.0000    0     1.008    3.089428    4.809992    1.736507
  11 H     1.0000    0     1.008   -3.137954   -2.606638    0.776228
  12 H     1.0000    0     1.008   -8.687682    2.640760   -1.978275
  13 H     1.0000    0     1.008   -5.694073    6.231636   -1.508564
  14 O     8.0000    0    15.999   -7.957092   -1.919411   -1.001698
  15 C     6.0000    0    12.011   -7.344626   -4.452013   -0.385056
  16 H     1.0000    0     1.008   -6.861236   -4.642077    1.612929
  17 H     1.0000    0     1.008   -5.777092   -5.146175   -1.535453
  18 H     1.0000    0     1.008   -9.026346   -5.556259   -0.787738
  19 C     6.0000    0    12.011    2.233462   -0.741585    2.203925
  20 C     6.0000    0    12.011    3.273684   -2.177245   -0.102188
  21 N     7.0000    0    14.007    4.792782   -0.591174   -1.746161
  22 C     6.0000    0    12.011    7.296720   -0.017625   -1.405733
  23 C     6.0000    0    12.011    8.801293   -1.779144    0.281447
  24 H     1.0000    0     1.008    1.159296   -2.059124    3.380078
  25 H     1.0000    0     1.008    3.815440   -0.061882    3.342190
  26 H     1.0000    0     1.008    1.702523   -2.916912   -1.213313
  27 H     1.0000    0     1.008    4.400354   -3.788190    0.504179
  28 H     1.0000    0     1.008    3.855161    0.761585   -2.710555
  29 O     8.0000    0    15.999    8.277699    1.779391   -2.477827
  30 H     1.0000    0     1.008    8.694486   -3.721027   -0.395514
  31 H     1.0000    0     1.008    8.101534   -1.741870    2.218497
  32 H     1.0000    0     1.008   10.753628   -1.153280    0.257602

--------------------------------
INTERNAL COORDINATES (ANGSTROEM)
--------------------------------
 N      0   0   0     0.000000000000     0.00000000     0.00000000
 C      1   0   0     1.377412843619     0.00000000     0.00000000
 C      2   1   0     1.378541155163   109.77650068     0.00000000
 C      3   2   1     1.435659870162   106.32830931     0.35933846
 C      4   3   2     1.412867306181   132.87237769   180.09802656
 C      5   4   3     1.387055911037   118.19403295   179.51203385
 C      6   5   4     1.417169196572   121.11861346     0.02826823
 C      7   6   5     1.381333396960   121.43109033   359.88889713
 C      1   2   3     1.376083378598   109.12055879   359.76988374
 H      1   2   3     1.003506435899   125.21496788   179.68823323
 H      2   1   3     1.078107709545   120.77743056   179.77529674
 H      5   4   3     1.079984277588   120.11340443   359.88639676
 H      7   6   5     1.081045021621   117.72557421   179.97128928
 H      8   7   6     1.082298209504   120.59210723   180.13449229
 O      6   5   4     1.369730479718   124.72102365   180.03768523
 C     15   6   5     1.416914005352   116.29810707     0.07814533
 H     16  15   6     1.092431584115   111.31733231    61.06970041
 H     16  15   6     1.092521745076   111.30718497   298.85754278
 H     16  15   6     1.085741438554   106.04373063   179.97789011
 C      3   2   1     1.496139391650   126.80445184   176.74667689
 C     20   3   2     1.539291364216   111.65331340   261.68082841
 N     21  20   3     1.451714351620   112.81538916    59.68144010
 C     22  21  20     1.371228259778   125.75516708    82.74861411
 C     23  22  21     1.516558212737   116.65399814    20.45034097
 H     20   3   2     1.093884454249   110.26386939   140.59934545
 H     20   3   2     1.092247667215   109.87435707    22.75010697
 H     21  20   3     1.090959473671   109.37969837   299.65369091
 H     21  20   3     1.088640871954   110.40503350   181.95450215
 H     22  21  20     1.009487019240   116.15260309   290.95295129
 O     23  22  21     1.222957447223   121.42179916   198.17266948
 H     24  23  22     1.089718385207   111.02974759    56.28683963
 H     24  23  22     1.090056005755   111.35435734   295.93687665
 H     24  23  22     1.084991923338   107.78419336   176.18439797

---------------------------
INTERNAL COORDINATES (A.U.)
---------------------------
 N      0   0   0     0.000000000000     0.00000000     0.00000000
 C      1   0   0     2.602933047786     0.00000000     0.00000000
 C      2   1   0     2.605065247597   109.77650068     0.00000000
 C      3   2   1     2.713003976067   106.32830931     0.35933846
 C      4   3   2     2.669932272253   132.87237769   180.09802656
 C      5   4   3     2.621155804296   118.19403295   179.51203385
 C      6   5   4     2.678061666950   121.11861346     0.02826823
 C      7   6   5     2.610341819894   121.43109033   359.88889713
 C      1   2   3     2.600420722990   109.12055879   359.76988374
 H      1   2   3     1.896352337476   125.21496788   179.68823323
 H      2   1   3     2.037328313909   120.77743056   179.77529674
 H      5   4   3     2.040874513583   120.11340443   359.88639676
 H      7   6   5     2.042879029302   117.72557421   179.97128928
 H      8   7   6     2.045247211195   120.59210723   180.13449229
 O      6   5   4     2.588415483952   124.72102365   180.03768523
 C     15   6   5     2.677579425434   116.29810707     0.07814533
 H     16  15   6     2.064396514023   111.31733231    61.06970041
 H     16  15   6     2.064566893547   111.30718497   298.85754278
 H     16  15   6     2.051753971117   106.04373063   179.97789011
 C      3   2   1     2.827293708391   126.80445184   176.74667689
 C     20   3   2     2.908839118678   111.65331340   261.68082841
 N     21  20   3     2.743342549245   112.81538916    59.68144010
 C     22  21  20     2.591245878074   125.75516708    82.74861411
 C     23  22  21     2.865879688222   116.65399814    20.45034097
 H     20   3   2     2.067142040685   110.26386939   140.59934545
 H     20   3   2     2.064048961450   109.87435707    22.75010697
 H     21  20   3     2.061614628446   109.37969837   299.65369091
 H     21  20   3     2.057233106187   110.40503350   181.95450215
 H     22  21  20     1.907654002111   116.15260309   290.95295129
 O     23  22  21     2.311054648690   121.42179916   198.17266948
 H     24  23  22     2.059269311140   111.02974759    56.28683963
 H     24  23  22     2.059907321513   111.35435734   295.93687665
 H     24  23  22     2.050337592625   107.78419336   176.18439797

---------------------
BASIS SET INFORMATION
---------------------
There are 4 groups of distinct atoms

 Group   1 Type N   : 8s4p1d contracted to 4s2p1d pattern {5111/31/1}
 Group   2 Type C   : 8s4p1d contracted to 4s2p1d pattern {5111/31/1}
 Group   3 Type H   : 4s contracted to 2s pattern {31}
 Group   4 Type O   : 8s4p1d contracted to 4s2p1d pattern {5111/31/1}

Atom   0N    basis set group =>   1
Atom   1C    basis set group =>   2
Atom   2C    basis set group =>   2
Atom   3C    basis set group =>   2
Atom   4C    basis set group =>   2
Atom   5C    basis set group =>   2
Atom   6C    basis set group =>   2
Atom   7C    basis set group =>   2
Atom   8C    basis set group =>   2
Atom   9H    basis set group =>   3
Atom  10H    basis set group =>   3
Atom  11H    basis set group =>   3
Atom  12H    basis set group =>   3
Atom  13H    basis set group =>   3
Atom  14O    basis set group =>   4
Atom  15C    basis set group =>   2
Atom  16H    basis set group =>   3
Atom  17H    basis set group =>   3
Atom  18H    basis set group =>   3
Atom  19C    basis set group =>   2
Atom  20C    basis set group =>   2
Atom  21N    basis set group =>   1
Atom  22C    basis set group =>   2
Atom  23C    basis set group =>   2
Atom  24H    basis set group =>   3
Atom  25H    basis set group =>   3
Atom  26H    basis set group =>   3
Atom  27H    basis set group =>   3
Atom  28H    basis set group =>   3
Atom  29O    basis set group =>   4
Atom  30H    basis set group =>   3
Atom  31H    basis set group =>   3
Atom  32H    basis set group =>   3
---------------------------------
AUXILIARY/J BASIS SET INFORMATION
---------------------------------
There are 4 groups of distinct atoms

 Group   1 Type N   : 12s5p4d2f1g contracted to 6s4p3d1f1g pattern {711111/2111/211/2/1}
 Group   2 Type C   : 12s5p4d2f1g contracted to 6s4p3d1f1g pattern {711111/2111/211/2/1}
 Group   3 Type H   : 5s2p1d contracted to 3s1p1d pattern {311/2/1}
 Group   4 Type O   : 12s5p4d2f1g contracted to 6s4p3d1f1g pattern {711111/2111/211/2/1}

Atom   0N    basis set group =>   1
Atom   1C    basis set group =>   2
Atom   2C    basis set group =>   2
Atom   3C    basis set group =>   2
Atom   4C    basis set group =>   2
Atom   5C    basis set group =>   2
Atom   6C    basis set group =>   2
Atom   7C    basis set group =>   2
Atom   8C    basis set group =>   2
Atom   9H    basis set group =>   3
Atom  10H    basis set group =>   3
Atom  11H    basis set group =>   3
Atom  12H    basis set group =>   3
Atom  13H    basis set group =>   3
Atom  14O    basis set group =>   4
Atom  15C    basis set group =>   2
Atom  16H    basis set group =>   3
Atom  17H    basis set group =>   3
Atom  18H    basis set group =>   3
Atom  19C    basis set group =>   2
Atom  20C    basis set group =>   2
Atom  21N    basis set group =>   1
Atom  22C    basis set group =>   2
Atom  23C    basis set group =>   2
Atom  24H    basis set group =>   3
Atom  25H    basis set group =>   3
Atom  26H    basis set group =>   3
Atom  27H    basis set group =>   3
Atom  28H    basis set group =>   3
Atom  29O    basis set group =>   4
Atom  30H    basis set group =>   3
Atom  31H    basis set group =>   3
Atom  32H    basis set group =>   3


           ************************************************************
           *        Program running with 4 parallel MPI-processes     *
           *              working on a common directory               *
           ************************************************************
------------------------------------------------------------------------------
                           ORCA GTO INTEGRAL CALCULATION
                           -- RI-GTO INTEGRALS CHOSEN --
------------------------------------------------------------------------------
------------------------------------------------------------------------------
                   ___                                                        
                  /   \      - P O W E R E D   B Y -                         
                 /     \                                                     
                 |  |  |   _    _      __       _____    __    __             
                 |  |  |  | |  | |    /  \     |  _  \  |  |  /  |          
                  \  \/   | |  | |   /    \    | | | |  |  | /  /          
                 / \  \   | |__| |  /  /\  \   | |_| |  |  |/  /          
                |  |  |   |  __  | /  /__\  \  |    /   |      \           
                |  |  |   | |  | | |   __   |  |    \   |  |\   \          
                \     /   | |  | | |  |  |  |  | |\  \  |  | \   \       
                 \___/    |_|  |_| |__|  |__|  |_| \__\ |__|  \__/        
                                                                              
                      - O R C A' S   B I G   F R I E N D -                    
                                      &                                       
                       - I N T E G R A L  F E E D E R -                       
                                                                              
 v1 FN, 2020, v2 2021                                                         
------------------------------------------------------------------------------


Reading SHARK input file pbeh-3c.SHARKINP.tmp ... ok
----------------------
SHARK INTEGRAL PACKAGE
----------------------

Number of atoms                             ...     33
Number of basis functions                   ...    287
Number of shells                            ...    151
Maximum angular momentum                    ...      2
Integral batch strategy                     ... SHARK/LIBINT Hybrid
RI-J (if used) integral strategy            ... SPLIT-RIJ (Revised 2003 algorithm where possible)
Printlevel                                  ...      1
Contraction scheme used                     ... SEGMENTED contraction
Coulomb Range Separation                    ... NOT USED
Exchange Range Separation                   ... NOT USED
Finite Nucleus Model                        ... NOT USED
Auxiliary Coulomb fitting basis             ... AVAILABLE
   # of basis functions in Aux-J            ...   1009
   # of shells in Aux-J                     ...    335
   Maximum angular momentum in Aux-J        ...      4
Auxiliary J/K fitting basis                 ... NOT available
Auxiliary Correlation fitting basis         ... NOT available
Auxiliary 'external' fitting basis          ... NOT available
Integral threshold                          ...     2.500000e-11
Primitive cut-off                           ...     2.500000e-12
Primitive pair pre-selection threshold      ...     2.500000e-12

Calculating pre-screening integrals         ... done (  0.1 sec) Dimension = 151
Organizing shell pair data                  ... done (  0.4 sec)
Shell pair information
Total number of shell pairs                 ...     11476
Shell pairs after pre-screening             ...      8134
Total number of primitive shell pairs       ...     41024
Primitive shell pairs kept                  ...     18819
          la=0 lb=0:   3238 shell pairs
          la=1 lb=0:   2710 shell pairs
          la=1 lb=1:    534 shell pairs
          la=2 lb=0:   1073 shell pairs
          la=2 lb=1:    475 shell pairs
          la=2 lb=2:    104 shell pairs

Calculating one electron integrals          ... done (  0.0 sec)
Calculating RI/J V-Matrix + Cholesky decomp.... done (  0.3 sec)
Calculating Nuclear repulsion               ... done (  0.0 sec) ENN=   1169.009042308080 Eh

SHARK setup successfully completed in   1.1 seconds

Maximum memory used throughout the entire GTOINT-calculation: 18.0 MB


           ************************************************************
           *        Program running with 4 parallel MPI-processes     *
           *              working on a common directory               *
           ************************************************************
-------------------------------------------------------------------------------
                                 ORCA SCF
-------------------------------------------------------------------------------

------------
SCF SETTINGS
------------
Hamiltonian:
 Density Functional     Method          .... DFT(GTOs)
 Exchange Functional    Exchange        .... PBE
   PBE kappa parameter   XKappa         ....  1.024500
   PBE mue parameter    XMuePBE         ....  0.123457
 Correlation Functional Correlation     .... PBE
   PBE beta parameter  CBetaPBE         ....  0.030000
 LDA part of GGA corr.  LDAOpt          .... PW91-LDA
 Gradients option       PostSCFGGA      .... off
 Hybrid DFT is turned on
   Fraction HF Exchange ScalHFX         ....  0.420000
   Scaling of DF-GGA-X  ScalDFX         ....  0.580000
   Scaling of DF-GGA-C  ScalDFC         ....  1.000000
   Scaling of DF-LDA-C  ScalLDAC        ....  1.000000
   Perturbative correction              ....  0.000000
   Density functional embedding theory  .... OFF
 RI-approximation to the Coulomb term is turned on
   Number of AuxJ basis functions       .... 1009
   RIJ-ON(X) (HFX calculated with O(N)) .... on
   Number of AuxJ basis functions       .... 1009
   RIJ-COSX (HFX calculated with COS-X)).... on


General Settings:
 Integral files         IntName         .... pbeh-3c
 Hartree-Fock type      HFTyp           .... RHF
 Total Charge           Charge          ....    0
 Multiplicity           Mult            ....    1
 Number of Electrons    NEL             ....  124
 Basis Dimension        Dim             ....  287
 Nuclear Repulsion      ENuc            ....   1169.0090423081 Eh

Convergence Acceleration:
 DIIS                   CNVDIIS         .... on
   Start iteration      DIISMaxIt       ....    12
   Startup error        DIISStart       ....  0.200000
   # of expansion vecs  DIISMaxEq       ....     5
   Bias factor          DIISBfac        ....   1.050
   Max. coefficient     DIISMaxC        ....  10.000
 Trust-Rad. Augm. Hess. CNVTRAH         .... auto
   Auto Start mean grad. ratio tolernc. ....  1.125000
   Auto Start start iteration           ....    20
   Auto Start num. interpolation iter.  ....    10
   Max. Number of Micro iterations      ....    16
   Max. Number of Macro iterations      .... Maxiter - #DIIS iter
   Number of Davidson start vectors     ....     2
   Converg. threshold I  (grad. norm)   ....   1.000e-05
   Converg. threshold II (energy diff.) ....   1.000e-08
   Grad. Scal. Fac. for Micro threshold ....   0.100
   Minimum threshold for Micro iter.    ....   0.010
   NR start threshold (gradient norm)   ....   0.001
   Initial trust radius                 ....   0.400
   Minimum AH scaling param. (alpha)    ....   1.000
   Maximum AH scaling param. (alpha)    .... 1000.000
   Orbital update algorithm             .... Taylor
   White noise on init. David. guess    .... on
   Maximum white noise                  ....   0.010
   Quad. conv. algorithm                .... NR
   COSX micro iterations for RIJONX calc.... off
 SOSCF                  CNVSOSCF        .... on
   Start iteration      SOSCFMaxIt      ....   150
   Startup grad/error   SOSCFStart      ....  0.003300
 Level Shifting         CNVShift        .... on
   Level shift para.    LevelShift      ....    0.2500
   Turn off err/grad.   ShiftErr        ....    0.0010
 Zerner damping         CNVZerner       .... off
 Static damping         CNVDamp         .... on
   Fraction old density DampFac         ....    0.7000
   Max. Damping (<1)    DampMax         ....    0.9800
   Min. Damping (>=0)   DampMin         ....    0.0000
   Turn off err/grad.   DampErr         ....    0.1000
 Fernandez-Rico         CNVRico         .... off

SCF Procedure:
 Maximum # iterations   MaxIter         ....   125
 SCF integral mode      SCFMode         .... Direct
   Integral package                     .... SHARK and LIBINT hybrid scheme
 Reset frequency        DirectResetFreq ....    20
 Integral Threshold     Thresh          ....  2.500e-11 Eh
 Primitive CutOff       TCut            ....  2.500e-12 Eh

Convergence Tolerance:
 Convergence Check Mode ConvCheckMode   .... Total+1el-Energy
 Convergence forced     ConvForced      .... 0
 Energy Change          TolE            ....  1.000e-08 Eh
 1-El. energy change                    ....  1.000e-05 Eh
 Orbital Gradient       TolG            ....  1.000e-05
 Orbital Rotation angle TolX            ....  1.000e-05
 DIIS Error             TolErr          ....  5.000e-07


Diagonalization of the overlap matrix:
Smallest eigenvalue                        ... 4.248e-04
Time for diagonalization                   ...    0.021 sec
Threshold for overlap eigenvalues          ... 1.000e-08
Number of eigenvalues below threshold      ... 0
Time for construction of square roots      ...    0.045 sec
Total time needed                          ...    0.067 sec

--------------------------------
INITIAL GUESS: MINIMAL BASIS EHT
--------------------------------
The minimal basis has 101 functions
EHT matrix was diagonalized
Basis set overlap was calculated now projecting the orbitals
Using GuessMode=FMatrix for the initial guess
C*T matrix was formed
Effective Fockian was calculated
Effective Fockian was diagonalized
Initial density was built
                      ------------------
                      INITIAL GUESS DONE
                      ------------------
-------------------
DFT GRID GENERATION
-------------------

General Integration Accuracy     IntAcc      ... 4.959
Radial Grid Type                 RadialGrid  ... OptM3 with GC (2021)
Angular Grid (max. ang.)         AngularGrid ... 6 (Lebedev-590)
Angular grid pruning method      GridPruning ... 4 (adaptive)
Weight generation scheme         WeightScheme... Becke
Basis function cutoff            BFCut       ... 1.0000e-11
Integration weight cutoff        WCut        ... 1.0000e-14
Angular grids for H and He will be reduced by one unit
Partially contracted basis set               ... off
Rotationally invariant grid construction     ... off

Total number of grid points                  ...   378463
Total number of batches                      ...     5930
Average number of points per batch           ...       63
Average number of grid points per atom       ...    11469
Time for grid setup =    6.957 sec

--------------------
COSX GRID GENERATION
--------------------

GRIDX 1
-------
General Integration Accuracy     IntAcc      ... 4.020
Radial Grid Type                 RadialGrid  ... OptM3 with GC (2021)
Angular Grid (max. ang.)         AngularGrid ... 2 (Lebedev-110)
Angular grid pruning method      GridPruning ... 4 (adaptive)
Weight generation scheme         WeightScheme... Becke
Basis function cutoff            BFCut       ... 1.0000e-11
Integration weight cutoff        WCut        ... 1.0000e-14
Angular grids for H and He will be reduced by one unit
Partially contracted basis set               ... on
Rotationally invariant grid construction     ... off

Total number of grid points                  ...    41883
Total number of batches                      ...      670
Average number of points per batch           ...       62
Average number of grid points per atom       ...     1269
UseSFitting                                  ... on

GRIDX 2
-------
General Integration Accuracy     IntAcc      ... 4.338
Radial Grid Type                 RadialGrid  ... OptM3 with GC (2021)
Angular Grid (max. ang.)         AngularGrid ... 3 (Lebedev-194)
Angular grid pruning method      GridPruning ... 4 (adaptive)
Weight generation scheme         WeightScheme... Becke
Basis function cutoff            BFCut       ... 1.0000e-11
Integration weight cutoff        WCut        ... 1.0000e-14
Angular grids for H and He will be reduced by one unit
Partially contracted basis set               ... on
Rotationally invariant grid construction     ... off

Total number of grid points                  ...    91528
Total number of batches                      ...     1448
Average number of points per batch           ...       63
Average number of grid points per atom       ...     2774
UseSFitting                                  ... on

GRIDX 3
-------
General Integration Accuracy     IntAcc      ... 4.871
Radial Grid Type                 RadialGrid  ... OptM3 with GC (2021)
Angular Grid (max. ang.)         AngularGrid ... 4 (Lebedev-302)
Angular grid pruning method      GridPruning ... 4 (adaptive)
Weight generation scheme         WeightScheme... Becke
Basis function cutoff            BFCut       ... 1.0000e-11
Integration weight cutoff        WCut        ... 1.0000e-14
Angular grids for H and He will be reduced by one unit
Partially contracted basis set               ... on
Rotationally invariant grid construction     ... off

Total number of grid points                  ...   173230
Total number of batches                      ...     2723
Average number of points per batch           ...       63
Average number of grid points per atom       ...     5249
UseSFitting                                  ... on

Time for X-Grid setup             =    6.910 sec

--------------
SCF ITERATIONS
--------------
ITER       Energy         Delta-E        Max-DP      RMS-DP      [F,P]     Damp
               ***  Starting incremental Fock matrix formation  ***
  0   -761.2770256223   0.000000000000 0.19479131  0.00466241  0.5584308 0.7000
  1   -761.9862213027  -0.709195680396 0.12265376  0.00298892  0.2916215 0.7000
  2   -762.3895285411  -0.403307238387 0.08661837  0.00197817  0.2056589 0.7000
                               ***Turning on DIIS***
  3   -762.6741756095  -0.284647068431 0.06069702  0.00140364  0.1445488 0.7000
  4   -762.8783594349  -0.204183825386 0.04203509  0.00105108  0.1013985 0.7000
  5   -763.0228988669  -0.144539431967 0.09745599  0.00256383  0.0711889 0.0000
                      *** Initiating the SOSCF procedure ***
                           *** Shutting down DIIS ***
                      *** Re-Reading the Fockian *** 
                      *** Removing any level shift *** 
ITER      Energy       Delta-E        Grad      Rot      Max-DP    RMS-DP
  6   -763.36666014  -0.3437612767  0.002217  0.002217  0.004170  0.000106
               *** Restarting incremental Fock matrix formation ***
  7   -763.36683755  -0.0001774079  0.000696  0.002196  0.004356  0.000076
  8   -763.36686914  -0.0000315903  0.001289  0.002865  0.001886  0.000041
  9   -763.36688764  -0.0000185002  0.000365  0.000677  0.000700  0.000016
 10   -763.36688967  -0.0000020260  0.000119  0.000111  0.000314  0.000007
 11   -763.36689039  -0.0000007203  0.000059  0.000163  0.000126  0.000003
 12   -763.36689048  -0.0000000903  0.000011  0.000024  0.000034  0.000001
 13   -763.36689049  -0.0000000083  0.000006  0.000010  0.000017  0.000000
                  ***Gradient check signals convergence***
              ***Rediagonalizing the Fockian in SOSCF/NRSCF***

               *****************************************************
               *                     SUCCESS                       *
               *           SCF CONVERGED AFTER  14 CYCLES          *
               *****************************************************

Old exchange energy                            =    -43.177639494 Eh
New exchange energy                            =    -43.177646686 Eh
Exchange energy change after final integration =     -0.000007192 Eh
Total energy after final integration           =   -763.366897680 Eh
Final COS-X integration done in                =    32.473 sec

----------------
TOTAL SCF ENERGY
----------------

Total Energy       :         -763.36689768 Eh          -20772.26933 eV

Components:
Nuclear Repulsion  :         1169.00904231 Eh           31810.35325 eV
Electronic Energy  :        -1932.37593999 Eh          -52582.62258 eV
One Electron Energy:        -3358.27022361 Eh          -91383.17862 eV
Two Electron Energy:         1425.89428363 Eh           38800.55604 eV
Max COSX asymmetry :            0.00000433 Eh               0.00012 eV

Virial components:
Potential Energy   :        -1520.77912338 Eh          -41382.50379 eV
Kinetic Energy     :          757.41222570 Eh           20610.23447 eV
Virial Ratio       :            2.00786186


DFT components:
N(Alpha)           :       61.999997687550 electrons
N(Beta)            :       61.999997687550 electrons
N(Total)           :      123.999995375100 electrons
E(X)               :      -57.397248077226 Eh       
E(C)               :       -5.448158953094 Eh       
E(XC)              :      -62.845407030321 Eh       
DFET-embed. en.    :        0.000000000000 Eh       

---------------
SCF CONVERGENCE
---------------

  Last Energy change         ...   -1.7801e-09  Tolerance :   1.0000e-08
  Last MAX-Density change    ...    1.8874e-15  Tolerance :   1.0000e-07
  Last RMS-Density change    ...    3.0970e-17  Tolerance :   5.0000e-09
  Last Orbital Gradient      ...    2.3359e-06  Tolerance :   1.0000e-05
  Last Orbital Rotation      ...    5.9591e-06  Tolerance :   1.0000e-05

             **** THE GBW FILE WAS UPDATED (pbeh-3c.gbw) ****
             **** DENSITY pbeh-3c.scfp WAS UPDATED ****
             **** ENERGY FILE WAS UPDATED (pbeh-3c.en.tmp) ****
             **** THE GBW FILE WAS UPDATED (pbeh-3c.gbw) ****
             **** DENSITY pbeh-3c.scfp WAS UPDATED ****
----------------
ORBITAL ENERGIES
----------------

  NO   OCC          E(Eh)            E(eV) 
   0   2.0000     -19.522970      -531.2470 
   1   2.0000     -19.447578      -529.1955 
   2   2.0000     -14.687291      -399.6615 
   3   2.0000     -14.649372      -398.6297 
   4   2.0000     -10.541834      -286.8579 
   5   2.0000     -10.503906      -285.8258 
   6   2.0000     -10.489506      -285.4340 
   7   2.0000     -10.482220      -285.2357 
   8   2.0000     -10.480987      -285.2022 
   9   2.0000     -10.478711      -285.1402 
  10   2.0000     -10.455126      -284.4985 
  11   2.0000     -10.451973      -284.4127 
  12   2.0000     -10.448884      -284.3286 
  13   2.0000     -10.445469      -284.2357 
  14   2.0000     -10.444459      -284.2082 
  15   2.0000     -10.442863      -284.1647 
  16   2.0000     -10.438179      -284.0373 
  17   2.0000      -1.171362       -31.8744 
  18   2.0000      -1.132700       -30.8223 
  19   2.0000      -1.089634       -29.6505 
  20   2.0000      -1.016869       -27.6704 
  21   2.0000      -0.940369       -25.5887 
  22   2.0000      -0.900927       -24.5155 
  23   2.0000      -0.844276       -22.9739 
  24   2.0000      -0.835759       -22.7422 
  25   2.0000      -0.823421       -22.4064 
  26   2.0000      -0.808506       -22.0006 
  27   2.0000      -0.779515       -21.2117 
  28   2.0000      -0.731126       -19.8950 
  29   2.0000      -0.693741       -18.8776 
  30   2.0000      -0.672818       -18.3083 
  31   2.0000      -0.650035       -17.6883 
  32   2.0000      -0.631605       -17.1868 
  33   2.0000      -0.611107       -16.6291 
  34   2.0000      -0.581034       -15.8107 
  35   2.0000      -0.561137       -15.2693 
  36   2.0000      -0.554047       -15.0764 
  37   2.0000      -0.543688       -14.7945 
  38   2.0000      -0.532320       -14.4852 
  39   2.0000      -0.528291       -14.3755 
  40   2.0000      -0.517169       -14.0729 
  41   2.0000      -0.508031       -13.8242 
  42   2.0000      -0.497510       -13.5379 
  43   2.0000      -0.490841       -13.3565 
  44   2.0000      -0.474626       -12.9152 
  45   2.0000      -0.466916       -12.7054 
  46   2.0000      -0.463179       -12.6037 
  47   2.0000      -0.455702       -12.4003 
  48   2.0000      -0.452694       -12.3184 
  49   2.0000      -0.450146       -12.2491 
  50   2.0000      -0.428214       -11.6523 
  51   2.0000      -0.422027       -11.4839 
  52   2.0000      -0.418273       -11.3818 
  53   2.0000      -0.407345       -11.0844 
  54   2.0000      -0.405473       -11.0335 
  55   2.0000      -0.380008       -10.3406 
  56   2.0000      -0.353135        -9.6093 
  57   2.0000      -0.325246        -8.8504 
  58   2.0000      -0.302164        -8.2223 
  59   2.0000      -0.291510        -7.9324 
  60   2.0000      -0.247030        -6.7220 
  61   2.0000      -0.242015        -6.5856 
  62   0.0000       0.004014         0.1092 
  63   0.0000       0.055930         1.5219 
  64   0.0000       0.064909         1.7663 
  65   0.0000       0.084500         2.2994 
  66   0.0000       0.121434         3.3044 
  67   0.0000       0.125802         3.4232 
  68   0.0000       0.144861         3.9419 
  69   0.0000       0.149457         4.0669 
  70   0.0000       0.154368         4.2006 
  71   0.0000       0.170926         4.6511 
  72   0.0000       0.173440         4.7195 
  73   0.0000       0.185763         5.0549 
  74   0.0000       0.190718         5.1897 
  75   0.0000       0.200384         5.4527 
  76   0.0000       0.202079         5.4988 
  77   0.0000       0.205036         5.5793 
  78   0.0000       0.217171         5.9095 
  79   0.0000       0.219292         5.9672 
  80   0.0000       0.221533         6.0282 
  81   0.0000       0.226329         6.1587 
  82   0.0000       0.232576         6.3287 
  83   0.0000       0.241869         6.5816 
  84   0.0000       0.246057         6.6955 
  85   0.0000       0.260869         7.0986 
  86   0.0000       0.265769         7.2319 
  87   0.0000       0.278816         7.5870 
  88   0.0000       0.284792         7.7496 
  89   0.0000       0.312315         8.4985 
  90   0.0000       0.316914         8.6237 
  91   0.0000       0.330417         8.9911 
  92   0.0000       0.341636         9.2964 
  93   0.0000       0.358746         9.7620 
  94   0.0000       0.368689        10.0325 
  95   0.0000       0.411290        11.1918 
  96   0.0000       0.416984        11.3467 
  97   0.0000       0.438533        11.9331 
  98   0.0000       0.487805        13.2739 
  99   0.0000       0.489205        13.3120 
 100   0.0000       0.493445        13.4273 
 101   0.0000       0.496147        13.5008 
 102   0.0000       0.509258        13.8576 
 103   0.0000       0.514498        14.0002 
 104   0.0000       0.528155        14.3718 
 105   0.0000       0.530993        14.4491 
 106   0.0000       0.539422        14.6784 
 107   0.0000       0.555461        15.1149 
 108   0.0000       0.561696        15.2845 
 109   0.0000       0.567740        15.4490 
 110   0.0000       0.579451        15.7677 
 111   0.0000       0.590378        16.0650 
 112   0.0000       0.594467        16.1763 
 113   0.0000       0.605231        16.4692 
 114   0.0000       0.612639        16.6708 
 115   0.0000       0.615122        16.7383 
 116   0.0000       0.618188        16.8218 
 117   0.0000       0.621065        16.9000 
 118   0.0000       0.637710        17.3530 
 119   0.0000       0.647318        17.6144 
 120   0.0000       0.654783        17.8176 
 121   0.0000       0.660322        17.9683 
 122   0.0000       0.674814        18.3626 
 123   0.0000       0.688718        18.7410 
 124   0.0000       0.695929        18.9372 
 125   0.0000       0.705842        19.2069 
 126   0.0000       0.724444        19.7131 
 127   0.0000       0.730405        19.8753 
 128   0.0000       0.744676        20.2637 
 129   0.0000       0.762127        20.7385 
 130   0.0000       0.782353        21.2889 
 131   0.0000       0.795010        21.6333 
 132   0.0000       0.815573        22.1929 
 133   0.0000       0.824152        22.4263 
 134   0.0000       0.848525        23.0895 
 135   0.0000       0.882062        24.0021 
 136   0.0000       0.887817        24.1587 
 137   0.0000       0.913174        24.8487 
 138   0.0000       0.919980        25.0339 
 139   0.0000       0.951036        25.8790 
 140   0.0000       0.957636        26.0586 
 141   0.0000       0.964805        26.2537 
 142   0.0000       0.976507        26.5721 
 143   0.0000       0.985604        26.8196 
 144   0.0000       0.992152        26.9978 
 145   0.0000       0.992915        27.0186 
 146   0.0000       1.000261        27.2185 
 147   0.0000       1.003372        27.3031 
 148   0.0000       1.003984        27.3198 
 149   0.0000       1.019956        27.7544 
 150   0.0000       1.028535        27.9879 
 151   0.0000       1.035455        28.1762 
 152   0.0000       1.036396        28.2018 
 153   0.0000       1.038917        28.2704 
 154   0.0000       1.053589        28.6696 
 155   0.0000       1.065522        28.9943 
 156   0.0000       1.081526        29.4298 
 157   0.0000       1.085952        29.5503 
 158   0.0000       1.096786        29.8451 
 159   0.0000       1.114507        30.3273 
 160   0.0000       1.124119        30.5888 
 161   0.0000       1.144662        31.1478 
 162   0.0000       1.148321        31.2474 
 163   0.0000       1.156981        31.4831 
 164   0.0000       1.167520        31.7698 
 165   0.0000       1.192827        32.4585 
 166   0.0000       1.210810        32.9478 
 167   0.0000       1.227246        33.3951 
 168   0.0000       1.247136        33.9363 
 169   0.0000       1.261474        34.3264 
 170   0.0000       1.279641        34.8208 
 171   0.0000       1.293634        35.2016 
 172   0.0000       1.299983        35.3743 
 173   0.0000       1.334878        36.3239 
 174   0.0000       1.373994        37.3883 
 175   0.0000       1.388404        37.7804 
 176   0.0000       1.411719        38.4148 
 177   0.0000       1.421251        38.6742 
 178   0.0000       1.437537        39.1174 
 179   0.0000       1.438485        39.1432 
 180   0.0000       1.449048        39.4306 
 181   0.0000       1.460606        39.7451 
 182   0.0000       1.464917        39.8624 
 183   0.0000       1.480036        40.2738 
 184   0.0000       1.520355        41.3710 
 185   0.0000       1.528010        41.5793 
 186   0.0000       1.532897        41.7122 
 187   0.0000       1.543985        42.0140 
 188   0.0000       1.560159        42.4541 
 189   0.0000       1.569100        42.6974 
 190   0.0000       1.588246        43.2184 
 191   0.0000       1.591403        43.3043 
 192   0.0000       1.650964        44.9250 
 193   0.0000       1.681248        45.7491 
 194   0.0000       1.715018        46.6680 
 195   0.0000       1.755515        47.7700 
 196   0.0000       1.804912        49.1142 
 197   0.0000       1.814286        49.3692 
 198   0.0000       1.827473        49.7281 
 199   0.0000       1.845360        50.2148 
 200   0.0000       1.869094        50.8606 
 201   0.0000       1.881760        51.2053 
 202   0.0000       1.884122        51.2696 
 203   0.0000       1.887283        51.3556 
 204   0.0000       1.904500        51.8241 
 205   0.0000       1.934481        52.6399 
 206   0.0000       1.942220        52.8505 
 207   0.0000       1.973826        53.7105 
 208   0.0000       1.984470        54.0002 
 209   0.0000       2.016826        54.8806 
 210   0.0000       2.020522        54.9812 
 211   0.0000       2.022422        55.0329 
 212   0.0000       2.053361        55.8748 
 213   0.0000       2.063263        56.1442 
 214   0.0000       2.087005        56.7903 
 215   0.0000       2.092327        56.9351 
 216   0.0000       2.096274        57.0425 
 217   0.0000       2.108275        57.3691 
 218   0.0000       2.130615        57.9770 
 219   0.0000       2.144659        58.3591 
 220   0.0000       2.158316        58.7308 
 221   0.0000       2.165047        58.9139 
 222   0.0000       2.169017        59.0219 
 223   0.0000       2.195168        59.7336 
 224   0.0000       2.206141        60.0321 
 225   0.0000       2.213026        60.2195 
 226   0.0000       2.257311        61.4246 
 227   0.0000       2.267007        61.6884 
 228   0.0000       2.276625        61.9501 
 229   0.0000       2.282615        62.1131 
 230   0.0000       2.305843        62.7452 
 231   0.0000       2.319081        63.1054 
 232   0.0000       2.330997        63.4296 
 233   0.0000       2.335160        63.5429 
 234   0.0000       2.374215        64.6057 
 235   0.0000       2.376806        64.6762 
 236   0.0000       2.393785        65.1382 
 237   0.0000       2.409637        65.5696 
 238   0.0000       2.433370        66.2154 
 239   0.0000       2.443185        66.4824 
 240   0.0000       2.469867        67.2085 
 241   0.0000       2.488454        67.7143 
 242   0.0000       2.502720        68.1025 
 243   0.0000       2.535037        68.9819 
 244   0.0000       2.565176        69.8020 
 245   0.0000       2.596784        70.6621 
 246   0.0000       2.607132        70.9437 
 247   0.0000       2.613602        71.1197 
 248   0.0000       2.644331        71.9559 
 249   0.0000       2.674300        72.7714 
 250   0.0000       2.682075        72.9830 
 251   0.0000       2.695310        73.3431 
 252   0.0000       2.725025        74.1517 
 253   0.0000       2.742155        74.6178 
 254   0.0000       2.745051        74.6966 
 255   0.0000       2.776178        75.5436 
 256   0.0000       2.790637        75.9371 
 257   0.0000       2.806723        76.3748 
 258   0.0000       2.842671        77.3530 
 259   0.0000       2.872433        78.1629 
 260   0.0000       2.966166        80.7135 
 261   0.0000       2.980212        81.0957 
 262   0.0000       2.989388        81.3454 
 263   0.0000       3.041562        82.7651 
 264   0.0000       3.068336        83.4937 
 265   0.0000       3.185963        86.6945 
 266   0.0000       3.202153        87.1350 
 267   0.0000       3.227007        87.8113 
 268   0.0000       3.351465        91.1980 
 269   0.0000       3.523189        95.8708 
 270   0.0000      13.266926       361.0114 
 271   0.0000      13.617863       370.5609 
 272   0.0000      13.666062       371.8725 
 273   0.0000      13.758933       374.3996 
 274   0.0000      13.771560       374.7432 
 275   0.0000      13.842777       376.6811 
 276   0.0000      13.851505       376.9186 
 277   0.0000      14.038445       382.0055 
 278   0.0000      14.044779       382.1779 
 279   0.0000      14.125181       384.3657 
 280   0.0000      14.235424       387.3656 
 281   0.0000      14.336225       390.1085 
 282   0.0000      14.541736       395.7008 
 283   0.0000      19.299804       525.1744 
 284   0.0000      19.404093       528.0122 
 285   0.0000      25.728061       700.0961 
 286   0.0000      25.783064       701.5928 

                    ********************************
                    * MULLIKEN POPULATION ANALYSIS *
                    ********************************

-----------------------
MULLIKEN ATOMIC CHARGES
-----------------------
   0 N :   -0.698149
   1 C :   -0.056781
   2 C :    0.008325
   3 C :    0.089126
   4 C :   -0.489008
   5 C :    0.393585
   6 C :   -0.317532
   7 C :   -0.251720
   8 C :    0.349857
   9 H :    0.361403
  10 H :    0.251540
  11 H :    0.216855
  12 H :    0.235835
  13 H :    0.216073
  14 O :   -0.465856
  15 C :   -0.404268
  16 H :    0.204666
  17 H :    0.202809
  18 H :    0.241833
  19 C :   -0.534244
  20 C :   -0.294817
  21 N :   -0.596485
  22 C :    0.487910
  23 C :   -0.778801
  24 H :    0.226352
  25 H :    0.231090
  26 H :    0.244537
  27 H :    0.231852
  28 H :    0.369915
  29 O :   -0.419146
  30 H :    0.240524
  31 H :    0.230975
  32 H :    0.271745
Sum of atomic charges:    0.0000000

--------------------------------
MULLIKEN REDUCED ORBITAL CHARGES
--------------------------------
  0 N s       :     3.598833  s :     3.598833
      pz      :     1.571921  p :     4.057697
      px      :     1.238515
      py      :     1.247261
      dz2     :     0.006126  d :     0.041619
      dxz     :     0.007838
      dyz     :     0.004056
      dx2y2   :     0.014524
      dxy     :     0.009074
  1 C s       :     3.161398  s :     3.161398
      pz      :     1.017672  p :     2.838713
      px      :     0.892702
      py      :     0.928339
      dz2     :     0.006241  d :     0.056670
      dxz     :     0.006923
      dyz     :     0.011468
      dx2y2   :     0.011714
      dxy     :     0.020323
  2 C s       :     3.198041  s :     3.198041
      pz      :     1.046896  p :     2.748254
      px      :     0.841295
      py      :     0.860063
      dz2     :     0.004365  d :     0.045380
      dxz     :     0.006926
      dyz     :     0.008070
      dx2y2   :     0.014847
      dxy     :     0.011173
  3 C s       :     3.215003  s :     3.215003
      pz      :     0.989684  p :     2.648922
      px      :     0.817406
      py      :     0.841831
      dz2     :     0.005297  d :     0.046949
      dxz     :     0.007899
      dyz     :     0.007709
      dx2y2   :     0.014058
      dxy     :     0.011986
  4 C s       :     3.328211  s :     3.328211
      pz      :     1.094188  p :     3.122844
      px      :     0.965846
      py      :     1.062811
      dz2     :     0.004626  d :     0.037953
      dxz     :     0.006752
      dyz     :     0.004192
      dx2y2   :     0.012523
      dxy     :     0.009860
  5 C s       :     3.052129  s :     3.052129
      pz      :     0.954104  p :     2.479060
      px      :     0.778131
      py      :     0.746825
      dz2     :     0.007348  d :     0.075227
      dxz     :     0.012243
      dyz     :     0.011876
      dx2y2   :     0.019971
      dxy     :     0.023788
  6 C s       :     3.267907  s :     3.267907
      pz      :     1.044873  p :     3.012069
      px      :     1.046681
      py      :     0.920515
      dz2     :     0.003493  d :     0.037556
      dxz     :     0.004593
      dyz     :     0.007239
      dx2y2   :     0.013165
      dxy     :     0.009065
  7 C s       :     3.255542  s :     3.255542
      pz      :     1.016450  p :     2.955922
      px      :     0.925705
      py      :     1.013768
      dz2     :     0.004560  d :     0.040256
      dxz     :     0.007423
      dyz     :     0.004743
      dx2y2   :     0.013728
      dxy     :     0.009802
  8 C s       :     3.078185  s :     3.078185
      pz      :     0.988473  p :     2.508724
      px      :     0.709291
      py      :     0.810961
      dz2     :     0.006214  d :     0.063234
      dxz     :     0.010809
      dyz     :     0.010306
      dx2y2   :     0.015566
      dxy     :     0.020339
  9 H s       :     0.638597  s :     0.638597
 10 H s       :     0.748460  s :     0.748460
 11 H s       :     0.783145  s :     0.783145
 12 H s       :     0.764165  s :     0.764165
 13 H s       :     0.783927  s :     0.783927
 14 O s       :     3.790925  s :     3.790925
      pz      :     1.792921  p :     4.641982
      px      :     1.604595
      py      :     1.244465
      dz2     :     0.004414  d :     0.032948
      dxz     :     0.004431
      dyz     :     0.005696
      dx2y2   :     0.007525
      dxy     :     0.010883
 15 C s       :     3.331602  s :     3.331602
      pz      :     1.098682  p :     3.010917
      px      :     1.154761
      py      :     0.757474
      dz2     :     0.013919  d :     0.061749
      dxz     :     0.007426
      dyz     :     0.011606
      dx2y2   :     0.012900
      dxy     :     0.015898
 16 H s       :     0.795334  s :     0.795334
 17 H s       :     0.797191  s :     0.797191
 18 H s       :     0.758167  s :     0.758167
 19 C s       :     3.389164  s :     3.389164
      pz      :     0.998341  p :     3.101419
      px      :     1.077140
      py      :     1.025938
      dz2     :     0.004513  d :     0.043662
      dxz     :     0.011309
      dyz     :     0.011712
      dx2y2   :     0.004546
      dxy     :     0.011582
 20 C s       :     3.291722  s :     3.291722
      pz      :     0.938985  p :     2.944613
      px      :     1.038172
      py      :     0.967456
      dz2     :     0.009840  d :     0.058483
      dxz     :     0.016203
      dyz     :     0.012219
      dx2y2   :     0.005340
      dxy     :     0.014880
 21 N s       :     3.541099  s :     3.541099
      pz      :     1.471559  p :     4.020860
      px      :     1.150566
      py      :     1.398735
      dz2     :     0.003691  d :     0.034525
      dxz     :     0.007490
      dyz     :     0.006195
      dx2y2   :     0.006885
      dxy     :     0.010265
 22 C s       :     2.976273  s :     2.976273
      pz      :     0.803046  p :     2.414731
      px      :     0.787977
      py      :     0.823708
      dz2     :     0.015676  d :     0.121087
      dxz     :     0.020833
      dyz     :     0.018909
      dx2y2   :     0.034589
      dxy     :     0.031080
 23 C s       :     3.414034  s :     3.414034
      pz      :     1.082551  p :     3.330885
      px      :     1.150029
      py      :     1.098306
      dz2     :     0.008789  d :     0.033882
      dxz     :     0.005347
      dyz     :     0.005181
      dx2y2   :     0.009525
      dxy     :     0.005040
 24 H s       :     0.773648  s :     0.773648
 25 H s       :     0.768910  s :     0.768910
 26 H s       :     0.755463  s :     0.755463
 27 H s       :     0.768148  s :     0.768148
 28 H s       :     0.630085  s :     0.630085
 29 O s       :     3.758139  s :     3.758139
      pz      :     1.486604  p :     4.631762
      px      :     1.721539
      py      :     1.423619
      dz2     :     0.005584  d :     0.029246
      dxz     :     0.003929
      dyz     :     0.006663
      dx2y2   :     0.006811
      dxy     :     0.006259
 30 H s       :     0.759476  s :     0.759476
 31 H s       :     0.769025  s :     0.769025
 32 H s       :     0.728255  s :     0.728255


                     *******************************
                     * LOEWDIN POPULATION ANALYSIS *
                     *******************************

----------------------
LOEWDIN ATOMIC CHARGES
----------------------
   0 N :   -0.154874
   1 C :   -0.082722
   2 C :   -0.115881
   3 C :   -0.052727
   4 C :   -0.199957
   5 C :    0.060401
   6 C :   -0.156784
   7 C :   -0.144933
   8 C :    0.002755
   9 H :    0.263378
  10 H :    0.140909
  11 H :    0.137853
  12 H :    0.146811
  13 H :    0.138506
  14 O :   -0.190187
  15 C :   -0.179955
  16 H :    0.112807
  17 H :    0.111990
  18 H :    0.130634
  19 C :   -0.237048
  20 C :   -0.147365
  21 N :   -0.243658
  22 C :    0.104521
  23 C :   -0.398995
  24 H :    0.134380
  25 H :    0.132853
  26 H :    0.130180
  27 H :    0.127985
  28 H :    0.262600
  29 O :   -0.274693
  30 H :    0.145067
  31 H :    0.140173
  32 H :    0.155975

-------------------------------
LOEWDIN REDUCED ORBITAL CHARGES
-------------------------------
  0 N s       :     3.075730  s :     3.075730
      pz      :     1.532861  p :     3.984570
      px      :     1.248356
      py      :     1.203353
      dz2     :     0.010459  d :     0.094574
      dxz     :     0.017433
      dyz     :     0.008076
      dx2y2   :     0.032558
      dxy     :     0.026047
  1 C s       :     2.885166  s :     2.885166
      pz      :     1.033724  p :     3.074402
      px      :     1.005500
      py      :     1.035179
      dz2     :     0.012106  d :     0.123155
      dxz     :     0.013396
      dyz     :     0.024479
      dx2y2   :     0.028219
      dxy     :     0.044954
  2 C s       :     2.842129  s :     2.842129
      pz      :     1.065824  p :     3.165299
      px      :     1.042822
      py      :     1.056652
      dz2     :     0.008638  d :     0.108453
      dxz     :     0.014666
      dyz     :     0.016530
      dx2y2   :     0.038792
      dxy     :     0.029827
  3 C s       :     2.830217  s :     2.830217
      pz      :     1.015421  p :     3.108248
      px      :     1.040851
      py      :     1.051975
      dz2     :     0.010434  d :     0.114261
      dxz     :     0.016643
      dyz     :     0.016850
      dx2y2   :     0.038030
      dxy     :     0.032304
  4 C s       :     2.883279  s :     2.883279
      pz      :     1.088514  p :     3.231292
      px      :     1.066486
      py      :     1.076292
      dz2     :     0.007825  d :     0.085386
      dxz     :     0.014387
      dyz     :     0.008031
      dx2y2   :     0.030147
      dxy     :     0.024996
  5 C s       :     2.824230  s :     2.824230
      pz      :     0.981912  p :     2.940843
      px      :     0.988635
      py      :     0.970296
      dz2     :     0.015626  d :     0.174525
      dxz     :     0.026596
      dyz     :     0.024989
      dx2y2   :     0.050841
      dxy     :     0.056473
  6 C s       :     2.891471  s :     2.891471
      pz      :     1.040397  p :     3.180147
      px      :     1.077391
      py      :     1.062359
      dz2     :     0.006152  d :     0.085166
      dxz     :     0.007545
      dyz     :     0.015739
      dx2y2   :     0.031397
      dxy     :     0.024333
  7 C s       :     2.886110  s :     2.886110
      pz      :     1.022685  p :     3.168092
      px      :     1.061973
      py      :     1.083434
      dz2     :     0.008114  d :     0.090731
      dxz     :     0.016134
      dyz     :     0.008753
      dx2y2   :     0.032232
      dxy     :     0.025497
  8 C s       :     2.812075  s :     2.812075
      pz      :     1.029250  p :     3.037719
      px      :     1.003705
      py      :     1.004764
      dz2     :     0.012831  d :     0.147450
      dxz     :     0.022758
      dyz     :     0.022335
      dx2y2   :     0.039786
      dxy     :     0.049740
  9 H s       :     0.736622  s :     0.736622
 10 H s       :     0.859091  s :     0.859091
 11 H s       :     0.862147  s :     0.862147
 12 H s       :     0.853189  s :     0.853189
 13 H s       :     0.861494  s :     0.861494
 14 O s       :     3.430028  s :     3.430028
      pz      :     1.780625  p :     4.687555
      px      :     1.615978
      py      :     1.290952
      dz2     :     0.008261  d :     0.072604
      dxz     :     0.006681
      dyz     :     0.013909
      dx2y2   :     0.019058
      dxy     :     0.024696
 15 C s       :     2.952179  s :     2.952179
      pz      :     1.119957  p :     3.106125
      px      :     1.136577
      py      :     0.849591
      dz2     :     0.025892  d :     0.121651
      dxz     :     0.012874
      dyz     :     0.024091
      dx2y2   :     0.025834
      dxy     :     0.032961
 16 H s       :     0.887193  s :     0.887193
 17 H s       :     0.888010  s :     0.888010
 18 H s       :     0.869366  s :     0.869366
 19 C s       :     2.905629  s :     2.905629
      pz      :     1.074597  p :     3.241281
      px      :     1.088799
      py      :     1.077885
      dz2     :     0.009966  d :     0.090139
      dxz     :     0.022260
      dyz     :     0.024950
      dx2y2   :     0.009436
      dxy     :     0.023527
 20 C s       :     2.900343  s :     2.900343
      pz      :     1.036229  p :     3.126054
      px      :     1.054822
      py      :     1.035003
      dz2     :     0.021404  d :     0.120968
      dxz     :     0.033038
      dyz     :     0.026599
      dx2y2   :     0.010477
      dxy     :     0.029450
 21 N s       :     3.121463  s :     3.121463
      pz      :     1.453022  p :     4.041903
      px      :     1.199519
      py      :     1.389362
      dz2     :     0.009078  d :     0.080292
      dxz     :     0.018509
      dyz     :     0.011013
      dx2y2   :     0.018440
      dxy     :     0.023252
 22 C s       :     2.832388  s :     2.832388
      pz      :     0.878459  p :     2.789688
      px      :     0.961024
      py      :     0.950205
      dz2     :     0.033539  d :     0.273403
      dxz     :     0.045185
      dyz     :     0.042602
      dx2y2   :     0.078173
      dxy     :     0.073903
 23 C s       :     2.965846  s :     2.965846
      pz      :     1.113194  p :     3.370464
      px      :     1.137717
      py      :     1.119553
      dz2     :     0.015884  d :     0.062685
      dxz     :     0.009883
      dyz     :     0.010391
      dx2y2   :     0.016925
      dxy     :     0.009603
 24 H s       :     0.865620  s :     0.865620
 25 H s       :     0.867147  s :     0.867147
 26 H s       :     0.869820  s :     0.869820
 27 H s       :     0.872015  s :     0.872015
 28 H s       :     0.737400  s :     0.737400
 29 O s       :     3.523746  s :     3.523746
      pz      :     1.502005  p :     4.695686
      px      :     1.719638
      py      :     1.474044
      dz2     :     0.007895  d :     0.055260
      dxz     :     0.006965
      dyz     :     0.014515
      dx2y2   :     0.012521
      dxy     :     0.013364
 30 H s       :     0.854933  s :     0.854933
 31 H s       :     0.859827  s :     0.859827
 32 H s       :     0.844025  s :     0.844025


                      *****************************
                      * MAYER POPULATION ANALYSIS *
                      *****************************

  NA   - Mulliken gross atomic population
  ZA   - Total nuclear charge
  QA   - Mulliken gross atomic charge
  VA   - Mayer's total valence
  BVA  - Mayer's bonded valence
  FA   - Mayer's free valence

  ATOM       NA         ZA         QA         VA         BVA        FA
  0 N      7.6981     7.0000    -0.6981     3.1766     3.1766     0.0000
  1 C      6.0568     6.0000    -0.0568     3.6946     3.6946     0.0000
  2 C      5.9917     6.0000     0.0083     3.6954     3.6954     0.0000
  3 C      5.9109     6.0000     0.0891     3.7764     3.7764     0.0000
  4 C      6.4890     6.0000    -0.4890     3.7187     3.7187     0.0000
  5 C      5.6064     6.0000     0.3936     3.7544     3.7544     0.0000
  6 C      6.3175     6.0000    -0.3175     3.8443     3.8443     0.0000
  7 C      6.2517     6.0000    -0.2517     3.7753     3.7753     0.0000
  8 C      5.6501     6.0000     0.3499     3.5294     3.5294     0.0000
  9 H      0.6386     1.0000     0.3614     0.8495     0.8495     0.0000
 10 H      0.7485     1.0000     0.2515     0.9003     0.9003    -0.0000
 11 H      0.7831     1.0000     0.2169     0.9234     0.9234     0.0000
 12 H      0.7642     1.0000     0.2358     0.9116     0.9116     0.0000
 13 H      0.7839     1.0000     0.2161     0.9125     0.9125    -0.0000
 14 O      8.4659     8.0000    -0.4659     2.1017     2.1017     0.0000
 15 C      6.4043     6.0000    -0.4043     3.7089     3.7089    -0.0000
 16 H      0.7953     1.0000     0.2047     0.9099     0.9099    -0.0000
 17 H      0.7972     1.0000     0.2028     0.9105     0.9105     0.0000
 18 H      0.7582     1.0000     0.2418     0.9080     0.9080    -0.0000
 19 C      6.5342     6.0000    -0.5342     3.6926     3.6926     0.0000
 20 C      6.2948     6.0000    -0.2948     3.7051     3.7051     0.0000
 21 N      7.5965     7.0000    -0.5965     3.0026     3.0026    -0.0000
 22 C      5.5121     6.0000     0.4879     4.0778     4.0778    -0.0000
 23 C      6.7788     6.0000    -0.7788     3.6606     3.6606     0.0000
 24 H      0.7736     1.0000     0.2264     0.9060     0.9060     0.0000
 25 H      0.7689     1.0000     0.2311     0.9062     0.9062     0.0000
 26 H      0.7555     1.0000     0.2445     0.8972     0.8972     0.0000
 27 H      0.7681     1.0000     0.2319     0.9054     0.9054     0.0000
 28 H      0.6301     1.0000     0.3699     0.8444     0.8444    -0.0000
 29 O      8.4191     8.0000    -0.4191     2.1881     2.1881    -0.0000
 30 H      0.7595     1.0000     0.2405     0.9038     0.9038     0.0000
 31 H      0.7690     1.0000     0.2310     0.9077     0.9077    -0.0000
 32 H      0.7283     1.0000     0.2717     0.9031     0.9031     0.0000

  Mayer bond orders larger than 0.100000
B(  0-N ,  1-C ) :   1.1444 B(  0-N ,  8-C ) :   1.0077 B(  0-N ,  9-H ) :   0.8318 
B(  1-C ,  2-C ) :   1.5444 B(  1-C , 10-H ) :   0.9058 B(  2-C ,  3-C ) :   1.2535 
B(  2-C , 19-C ) :   0.9581 B(  3-C ,  4-C ) :   1.2510 B(  3-C ,  8-C ) :   1.2560 
B(  4-C ,  5-C ) :   1.4225 B(  4-C , 11-H ) :   0.9165 B(  5-C ,  6-C ) :   1.2991 
B(  5-C , 14-O ) :   1.0270 B(  6-C ,  7-C ) :   1.5284 B(  6-C , 12-H ) :   0.9081 
B(  7-C ,  8-C ) :   1.2720 B(  7-C , 13-H ) :   0.9196 B( 14-O , 15-C ) :   0.9573 
B( 15-C , 16-H ) :   0.9068 B( 15-C , 17-H ) :   0.9072 B( 15-C , 18-H ) :   0.9229 
B( 19-C , 20-C ) :   0.9443 B( 19-C , 24-H ) :   0.9134 B( 19-C , 25-H ) :   0.9241 
B( 20-C , 21-N ) :   0.9762 B( 20-C , 26-H ) :   0.9100 B( 20-C , 27-H ) :   0.9077 
B( 21-N , 22-C ) :   1.1525 B( 21-N , 28-H ) :   0.8117 B( 22-C , 23-C ) :   0.9253 
B( 22-C , 29-O ) :   2.0306 B( 23-C , 30-H ) :   0.9096 B( 23-C , 31-H ) :   0.9088 
B( 23-C , 32-H ) :   0.9159 

-------
TIMINGS
-------

Total SCF time: 0 days 0 hours 4 min 17 sec 

Total time                  ....     257.560 sec
Sum of individual times     ....     252.141 sec  ( 97.9%)

Fock matrix formation       ....     232.110 sec  ( 90.1%)
  Split-RI-J                ....      15.094 sec  (  6.5% of F)
  Chain of spheres X        ....     169.324 sec  ( 72.9% of F)
  XC integration            ....      36.354 sec  ( 15.7% of F)
    Basis function eval.    ....      11.178 sec  ( 30.7% of XC)
    Density eval.           ....       6.427 sec  ( 17.7% of XC)
    XC-Functional eval.     ....       2.783 sec  (  7.7% of XC)
    XC-Potential eval.      ....       3.857 sec  ( 10.6% of XC)
Diagonalization             ....       1.075 sec  (  0.4%)
Density matrix formation    ....       0.119 sec  (  0.0%)
Population analysis         ....       0.955 sec  (  0.4%)
Initial guess               ....       0.083 sec  (  0.0%)
Orbital Transformation      ....       0.000 sec  (  0.0%)
Orbital Orthonormalization  ....       0.000 sec  (  0.0%)
DIIS solution               ....       1.984 sec  (  0.8%)
SOSCF solution              ....       1.948 sec  (  0.8%)
Grid generation             ....      13.866 sec  (  5.4%)

Maximum memory used throughout the entire SCF-calculation: 97.9 MB


-------------------------------------------------------------------------------
                          DFT DISPERSION CORRECTION                            
                                                                               
                              DFTD3 V3.1  Rev 1                                
                          USING Becke-Johnson damping                          
-------------------------------------------------------------------------------
The PBEh-3c composite method is recognized
Using three-body term ABC
Active option DFTDOPT                   ...         4   

molecular C6(AA) [au] = 10859.907759 


            DFT-D V3
 parameters
 s6 scaling factor         :     1.0000 
 a1 scaling factor         :     0.4860 
 s8 scaling factor         :     0.0000 
 a2 scaling factor         :     4.5000 
 Damping factor alpha9(ATM):    16.0000 
 ad hoc parameters k1-k3   :    16.0000     1.3333    -4.0000 

 Edisp/kcal,au: -13.624149796371  -0.021711462386 
 E6   /kcal   : -13.693101838 
 E8   /kcal   :  -0.000000000 
 E6(ABC)      :   0.068952041 
 % E8         :   0.000000000 
 % E6(ABC)    :  -0.506101609 

-------------------------   ----------------
Dispersion correction           -0.021711462
-------------------------   ----------------

------------------   -----------------
gCP correction             0.061806732
------------------   -----------------

-------------------------   --------------------
FINAL SINGLE POINT ENERGY      -763.326802410854
-------------------------   --------------------


                            ***************************************
                            *     ORCA property calculations      *
                            ***************************************

                                    ---------------------
                                    Active property flags
                                    ---------------------
   (+) Dipole Moment


------------------------------------------------------------------------------
                       ORCA ELECTRIC PROPERTIES CALCULATION
------------------------------------------------------------------------------

Dipole Moment Calculation                       ... on
Quadrupole Moment Calculation                   ... off
Polarizability Calculation                      ... off
GBWName                                         ... pbeh-3c.gbw
Electron density                                ... pbeh-3c.scfp
The origin for moment calculation is the CENTER OF MASS  = (-0.231442,  0.593647 -0.250634)

-------------
DIPOLE MOMENT
-------------
                                X             Y             Z
Electronic contribution:     -5.27552      10.07923      -2.99738
Nuclear contribution   :      4.71226     -10.53353       3.84087
                        -----------------------------------------
Total Dipole Moment    :     -0.56326      -0.45431       0.84349
                        -----------------------------------------
Magnitude (a.u.)       :      1.11137
Magnitude (Debye)      :      2.82487



--------------------
Rotational spectrum 
--------------------
 
Rotational constants in cm-1:     0.028714     0.008091     0.006838 
Rotational constants in MHz :   860.810828   242.569207   204.994252 

 Dipole components along the rotational axes: 
x,y,z [a.u.] :     0.572022    -0.440252     0.845050 
x,y,z [Debye]:     1.453963    -1.119031     2.147945 

 

Timings for individual modules:

Sum of individual times         ...      259.861 sec (=   4.331 min)
GTO integral calculation        ...        1.591 sec (=   0.027 min)   0.6 %
SCF iterations                  ...      258.271 sec (=   4.305 min)  99.4 %
                             ****ORCA TERMINATED NORMALLY****
TOTAL RUN TIME: 0 days 0 hours 4 minutes 22 seconds 230 msec
