
                                 *****************
                                 * O   R   C   A *
                                 *****************

                                            #,                                       
                                            ###                                      
                                            ####                                     
                                            #####                                    
                                            ######                                   
                                           ########,                                 
                                     ,,################,,,,,                         
                               ,,#################################,,                 
                          ,,##########################################,,             
                       ,#########################################, ''#####,          
                    ,#############################################,,   '####,        
                  ,##################################################,,,,####,       
                ,###########''''           ''''###############################       
              ,#####''   ,,,,##########,,,,          '''####'''          '####       
            ,##' ,,,,###########################,,,                        '##       
           ' ,,###''''                  '''############,,,                           
         ,,##''                                '''############,,,,        ,,,,,,###''
      ,#''                                            '''#######################'''  
     '                                                          ''''####''''         
             ,#######,   #######,   ,#######,      ##                                
            ,#'     '#,  ##    ##  ,#'     '#,    #''#        ######   ,####,        
            ##       ##  ##   ,#'  ##            #'  '#       #        #'  '#        
            ##       ##  #######   ##           ,######,      #####,   #    #        
            '#,     ,#'  ##    ##  '#,     ,#' ,#      #,         ##   #,  ,#        
             '#######'   ##     ##  '#######'  #'      '#     #####' # '####'        



                  #######################################################
                  #                        -***-                        #
                  #          Department of theory and spectroscopy      #
                  #    Directorship and core code : Frank Neese         #
                  #        Max Planck Institute fuer Kohlenforschung    #
                  #                Kaiser Wilhelm Platz 1               #
                  #                 D-45470 Muelheim/Ruhr               #
                  #                      Germany                        #
                  #                                                     #
                  #                  All rights reserved                #
                  #                        -***-                        #
                  #######################################################


                         Program Version 5.0.3 -  RELEASE  -


 With contributions from (in alphabetic order):
   Daniel Aravena         : Magnetic Suceptibility
   Michael Atanasov       : Ab Initio Ligand Field Theory (pilot matlab implementation)
   Alexander A. Auer      : GIAO ZORA, VPT2 properties, NMR spectrum
   Ute Becker             : Parallelization
   Giovanni Bistoni       : ED, misc. LED, open-shell LED, HFLD
   Martin Brehm           : Molecular dynamics
   Dmytro Bykov           : SCF Hessian
   Vijay G. Chilkuri      : MRCI spin determinant printing, contributions to CSF-ICE
   Dipayan Datta          : RHF DLPNO-CCSD density
   Achintya Kumar Dutta   : EOM-CC, STEOM-CC
   Dmitry Ganyushin       : Spin-Orbit,Spin-Spin,Magnetic field MRCI
   Miquel Garcia          : C-PCM and meta-GGA Hessian, CC/C-PCM, Gaussian charge scheme
   Yang Guo               : DLPNO-NEVPT2, F12-NEVPT2, CIM, IAO-localization
   Andreas Hansen         : Spin unrestricted coupled pair/coupled cluster methods
   Benjamin Helmich-Paris : MC-RPA, TRAH-SCF, COSX integrals
   Lee Huntington         : MR-EOM, pCC
   Robert Izsak           : Overlap fitted RIJCOSX, COSX-SCS-MP3, EOM
   Marcus Kettner         : VPT2
   Christian Kollmar      : KDIIS, OOCD, Brueckner-CCSD(T), CCSD density, CASPT2, CASPT2-K
   Simone Kossmann        : Meta GGA functionals, TD-DFT gradient, OOMP2, MP2 Hessian
   Martin Krupicka        : Initial AUTO-CI
   Lucas Lang             : DCDCAS
   Marvin Lechner         : AUTO-CI (C++ implementation), FIC-MRCC
   Dagmar Lenk            : GEPOL surface, SMD
   Dimitrios Liakos       : Extrapolation schemes; Compound Job, initial MDCI parallelization
   Dimitrios Manganas     : Further ROCIS development; embedding schemes
   Dimitrios Pantazis     : SARC Basis sets
   Anastasios Papadopoulos: AUTO-CI, single reference methods and gradients
   Taras Petrenko         : DFT Hessian,TD-DFT gradient, ASA, ECA, R-Raman, ABS, FL, XAS/XES, NRVS
   Peter Pinski           : DLPNO-MP2, DLPNO-MP2 Gradient
   Christoph Reimann      : Effective Core Potentials
   Marius Retegan         : Local ZFS, SOC
   Christoph Riplinger    : Optimizer, TS searches, QM/MM, DLPNO-CCSD(T), (RO)-DLPNO pert. Triples
   Tobias Risthaus        : Range-separated hybrids, TD-DFT gradient, RPA, STAB
   Michael Roemelt        : Original ROCIS implementation
   Masaaki Saitow         : Open-shell DLPNO-CCSD energy and density
   Barbara Sandhoefer     : DKH picture change effects
   Avijit Sen             : IP-ROCIS
   Kantharuban Sivalingam : CASSCF convergence, NEVPT2, FIC-MRCI
   Bernardo de Souza      : ESD, SOC TD-DFT
   Georgi Stoychev        : AutoAux, RI-MP2 NMR, DLPNO-MP2 response
   Willem Van den Heuvel  : Paramagnetic NMR
   Boris Wezisla          : Elementary symmetry handling
   Frank Wennmohs         : Technical directorship


 We gratefully acknowledge several colleagues who have allowed us to
 interface, adapt or use parts of their codes:
   Stefan Grimme, W. Hujo, H. Kruse, P. Pracht,  : VdW corrections, initial TS optimization,
                  C. Bannwarth, S. Ehlert          DFT functionals, gCP, sTDA/sTD-DF
   Ed Valeev, F. Pavosevic, A. Kumar             : LibInt (2-el integral package), F12 methods
   Garnet Chan, S. Sharma, J. Yang, R. Olivares  : DMRG
   Ulf Ekstrom                                   : XCFun DFT Library
   Mihaly Kallay                                 : mrcc  (arbitrary order and MRCC methods)
   Jiri Pittner, Ondrej Demel                    : Mk-CCSD
   Frank Weinhold                                : gennbo (NPA and NBO analysis)
   Christopher J. Cramer and Donald G. Truhlar   : smd solvation model
   Lars Goerigk                                  : TD-DFT with DH, B97 family of functionals
   V. Asgeirsson, H. Jonsson                     : NEB implementation
   FAccTs GmbH                                   : IRC, NEB, NEB-TS, DLPNO-Multilevel, CI-OPT
                                                   MM, QMMM, 2- and 3-layer-ONIOM, Crystal-QMMM,
                                                   LR-CPCM, SF, NACMEs, symmetry and pop. for TD-DFT,
                                                   nearIR, NL-DFT gradient (VV10), updates on ESD,
                                                   ML-optimized integration grids
   S Lehtola, MJT Oliveira, MAL Marques          : LibXC Library
   Liviu Ungur et al                             : ANISO software


 Your calculation uses the libint2 library for the computation of 2-el integrals
 For citations please refer to: http://libint.valeyev.net

 Your ORCA version has been built with support for libXC version: 5.1.0
 For citations please refer to: https://tddft.org/programs/libxc/

 This ORCA versions uses:
   CBLAS   interface :  Fast vector & matrix operations
   LAPACKE interface :  Fast linear algebra routines
   SCALAPACK package :  Parallel linear algebra routines
   Shared memory     :  Shared parallel matrices
   BLAS/LAPACK       :  OpenBLAS 0.3.15  USE64BITINT DYNAMIC_ARCH NO_AFFINITY Haswell SINGLE_THREADED
        Core in use  :  Haswell
   Copyright (c) 2011-2014, The OpenBLAS Project




***************************************
The coordinates will be read from file: 13r_3.xyz
***************************************


Your calculation utilizes the geometrical counterpoise correction gCP
Please cite in your paper:
H.Kruse, S. Grimme J.Chem.Phys., 136, (2012), 154101 
   

Your calculation utilizes the atom-pairwise dispersion correction
with the Becke-Johnson damping scheme (D3BJ)
Cite in your paper:
S.Grimme, S.Ehrlich, L.Goerigk, J Comput Chem, (2011), 32, 1456–1465 
S.Grimme, J.Antony, S.Ehrlich and H.Krieg, J.Chem.Phys., 132, (2010), 154104 
   

Your calculation employs the composite approach PBEh-3c.
Please cite in your paper:
S. Grimme, J. G. Brandenburg, C. Bannwarth, A. Hansen J.Chem.Phys., 143, (2015), 054107 
   

================================================================================

----- Orbital basis set information -----
Your calculation utilizes the basis: def2-mSVP

----- AuxJ basis set information -----
Your calculation utilizes the auxiliary basis: def2/J
   F. Weigend, Phys. Chem. Chem. Phys. 8, 1057 (2006).

================================================================================
                                        WARNINGS
                       Please study these warnings very carefully!
================================================================================


INFO   : the flag for use of the SHARK integral package has been found!

================================================================================
                                       INPUT FILE
================================================================================
NAME = pbeh-3c.inp
|  1> ! PBEh-3c def2/J TightSCF DefGrid3
|  2> 
|  3> %maxcore 60000
|  4> 
|  5> %pal
|  6> nprocs 4
|  7> end
|  8> 
|  9> *xyzfile 0 1 13r_3.xyz
| 10> 
| 11>                          ****END OF INPUT****
================================================================================

                       ****************************
                       * Single Point Calculation *
                       ****************************

---------------------------------
CARTESIAN COORDINATES (ANGSTROEM)
---------------------------------
  N      0.000000    0.000000    1.888325
  N      0.000000    0.000000    0.751656
  C      0.000000    0.000000   -0.543323
  H      0.952037    0.000000   -1.048329
  H     -0.952037    0.000000   -1.048329

----------------------------
CARTESIAN COORDINATES (A.U.)
----------------------------
  NO LB      ZA    FRAG     MASS         X           Y           Z
   0 N     7.0000    0    14.007    0.000000    0.000000    3.568417
   1 N     7.0000    0    14.007    0.000000    0.000000    1.420423
   2 C     6.0000    0    12.011    0.000000    0.000000   -1.026731
   3 H     1.0000    0     1.008    1.799089    0.000000   -1.981054
   4 H     1.0000    0     1.008   -1.799089    0.000000   -1.981054

--------------------------------
INTERNAL COORDINATES (ANGSTROEM)
--------------------------------
 N      0   0   0     0.000000000000     0.00000000     0.00000000
 N      1   0   0     1.136669500000     0.00000000     0.00000000
 C      2   1   0     1.294978300000   180.00000000     0.00000000
 H      3   2   1     1.077685166919   117.94362217     0.00000000
 H      3   2   1     1.077685166919   117.94362217     0.00000000

---------------------------
INTERNAL COORDINATES (A.U.)
---------------------------
 N      0   0   0     0.000000000000     0.00000000     0.00000000
 N      1   0   0     2.147994059781     0.00000000     0.00000000
 C      2   1   0     2.447154336371   180.00000000     0.00000000
 H      3   2   1     2.036529824066   117.94362217     0.00000000
 H      3   2   1     2.036529824066   117.94362217     0.00000000

---------------------
BASIS SET INFORMATION
---------------------
There are 3 groups of distinct atoms

 Group   1 Type N   : 8s4p1d contracted to 4s2p1d pattern {5111/31/1}
 Group   2 Type C   : 8s4p1d contracted to 4s2p1d pattern {5111/31/1}
 Group   3 Type H   : 4s contracted to 2s pattern {31}

Atom   0N    basis set group =>   1
Atom   1N    basis set group =>   1
Atom   2C    basis set group =>   2
Atom   3H    basis set group =>   3
Atom   4H    basis set group =>   3
---------------------------------
AUXILIARY/J BASIS SET INFORMATION
---------------------------------
There are 3 groups of distinct atoms

 Group   1 Type N   : 12s5p4d2f1g contracted to 6s4p3d1f1g pattern {711111/2111/211/2/1}
 Group   2 Type C   : 12s5p4d2f1g contracted to 6s4p3d1f1g pattern {711111/2111/211/2/1}
 Group   3 Type H   : 5s2p1d contracted to 3s1p1d pattern {311/2/1}

Atom   0N    basis set group =>   1
Atom   1N    basis set group =>   1
Atom   2C    basis set group =>   2
Atom   3H    basis set group =>   3
Atom   4H    basis set group =>   3


           ************************************************************
           *        Program running with 4 parallel MPI-processes     *
           *              working on a common directory               *
           ************************************************************
------------------------------------------------------------------------------
                           ORCA GTO INTEGRAL CALCULATION
                           -- RI-GTO INTEGRALS CHOSEN --
------------------------------------------------------------------------------
------------------------------------------------------------------------------
                   ___                                                        
                  /   \      - P O W E R E D   B Y -                         
                 /     \                                                     
                 |  |  |   _    _      __       _____    __    __             
                 |  |  |  | |  | |    /  \     |  _  \  |  |  /  |          
                  \  \/   | |  | |   /    \    | | | |  |  | /  /          
                 / \  \   | |__| |  /  /\  \   | |_| |  |  |/  /          
                |  |  |   |  __  | /  /__\  \  |    /   |      \           
                |  |  |   | |  | | |   __   |  |    \   |  |\   \          
                \     /   | |  | | |  |  |  |  | |\  \  |  | \   \       
                 \___/    |_|  |_| |__|  |__|  |_| \__\ |__|  \__/        
                                                                              
                      - O R C A' S   B I G   F R I E N D -                    
                                      &                                       
                       - I N T E G R A L  F E E D E R -                       
                                                                              
 v1 FN, 2020, v2 2021                                                         
------------------------------------------------------------------------------


Reading SHARK input file pbeh-3c.SHARKINP.tmp ... ok
----------------------
SHARK INTEGRAL PACKAGE
----------------------

Number of atoms                             ...      5
Number of basis functions                   ...     49
Number of shells                            ...     25
Maximum angular momentum                    ...      2
Integral batch strategy                     ... SHARK/LIBINT Hybrid
RI-J (if used) integral strategy            ... SPLIT-RIJ (Revised 2003 algorithm where possible)
Printlevel                                  ...      1
Contraction scheme used                     ... SEGMENTED contraction
Coulomb Range Separation                    ... NOT USED
Exchange Range Separation                   ... NOT USED
Finite Nucleus Model                        ... NOT USED
Auxiliary Coulomb fitting basis             ... AVAILABLE
   # of basis functions in Aux-J            ...    169
   # of shells in Aux-J                     ...     55
   Maximum angular momentum in Aux-J        ...      4
Auxiliary J/K fitting basis                 ... NOT available
Auxiliary Correlation fitting basis         ... NOT available
Auxiliary 'external' fitting basis          ... NOT available
Integral threshold                          ...     2.500000e-11
Primitive cut-off                           ...     2.500000e-12
Primitive pair pre-selection threshold      ...     2.500000e-12

Calculating pre-screening integrals         ... done (  0.1 sec) Dimension = 25
Organizing shell pair data                  ... done (  0.2 sec)
Shell pair information
Total number of shell pairs                 ...       325
Shell pairs after pre-screening             ...       319
Total number of primitive shell pairs       ...      1173
Primitive shell pairs kept                  ...       964
          la=0 lb=0:    130 shell pairs
          la=1 lb=0:     96 shell pairs
          la=1 lb=1:     21 shell pairs
          la=2 lb=0:     48 shell pairs
          la=2 lb=1:     18 shell pairs
          la=2 lb=2:      6 shell pairs

Calculating one electron integrals          ... done (  0.1 sec)
Calculating RI/J V-Matrix + Cholesky decomp.... done (  0.6 sec)
Calculating Nuclear repulsion               ... done (  0.1 sec) ENN=     61.323240366987 Eh

SHARK setup successfully completed in   2.2 seconds

Maximum memory used throughout the entire GTOINT-calculation: 9.0 MB


           ************************************************************
           *        Program running with 4 parallel MPI-processes     *
           *              working on a common directory               *
           ************************************************************
-------------------------------------------------------------------------------
                                 ORCA SCF
-------------------------------------------------------------------------------

------------
SCF SETTINGS
------------
Hamiltonian:
 Density Functional     Method          .... DFT(GTOs)
 Exchange Functional    Exchange        .... PBE
   PBE kappa parameter   XKappa         ....  1.024500
   PBE mue parameter    XMuePBE         ....  0.123457
 Correlation Functional Correlation     .... PBE
   PBE beta parameter  CBetaPBE         ....  0.030000
 LDA part of GGA corr.  LDAOpt          .... PW91-LDA
 Gradients option       PostSCFGGA      .... off
 Hybrid DFT is turned on
   Fraction HF Exchange ScalHFX         ....  0.420000
   Scaling of DF-GGA-X  ScalDFX         ....  0.580000
   Scaling of DF-GGA-C  ScalDFC         ....  1.000000
   Scaling of DF-LDA-C  ScalLDAC        ....  1.000000
   Perturbative correction              ....  0.000000
   Density functional embedding theory  .... OFF
 RI-approximation to the Coulomb term is turned on
   Number of AuxJ basis functions       .... 169
   RIJ-ON(X) (HFX calculated with O(N)) .... on
   Number of AuxJ basis functions       .... 169
   RIJ-COSX (HFX calculated with COS-X)).... on


General Settings:
 Integral files         IntName         .... pbeh-3c
 Hartree-Fock type      HFTyp           .... RHF
 Total Charge           Charge          ....    0
 Multiplicity           Mult            ....    1
 Number of Electrons    NEL             ....   22
 Basis Dimension        Dim             ....   49
 Nuclear Repulsion      ENuc            ....     61.3232403670 Eh

Convergence Acceleration:
 DIIS                   CNVDIIS         .... on
   Start iteration      DIISMaxIt       ....    12
   Startup error        DIISStart       ....  0.200000
   # of expansion vecs  DIISMaxEq       ....     5
   Bias factor          DIISBfac        ....   1.050
   Max. coefficient     DIISMaxC        ....  10.000
 Trust-Rad. Augm. Hess. CNVTRAH         .... auto
   Auto Start mean grad. ratio tolernc. ....  1.125000
   Auto Start start iteration           ....    20
   Auto Start num. interpolation iter.  ....    10
   Max. Number of Micro iterations      ....    16
   Max. Number of Macro iterations      .... Maxiter - #DIIS iter
   Number of Davidson start vectors     ....     2
   Converg. threshold I  (grad. norm)   ....   1.000e-05
   Converg. threshold II (energy diff.) ....   1.000e-08
   Grad. Scal. Fac. for Micro threshold ....   0.100
   Minimum threshold for Micro iter.    ....   0.010
   NR start threshold (gradient norm)   ....   0.001
   Initial trust radius                 ....   0.400
   Minimum AH scaling param. (alpha)    ....   1.000
   Maximum AH scaling param. (alpha)    .... 1000.000
   Orbital update algorithm             .... Taylor
   White noise on init. David. guess    .... on
   Maximum white noise                  ....   0.010
   Quad. conv. algorithm                .... NR
   COSX micro iterations for RIJONX calc.... off
 SOSCF                  CNVSOSCF        .... on
   Start iteration      SOSCFMaxIt      ....   150
   Startup grad/error   SOSCFStart      ....  0.003300
 Level Shifting         CNVShift        .... on
   Level shift para.    LevelShift      ....    0.2500
   Turn off err/grad.   ShiftErr        ....    0.0010
 Zerner damping         CNVZerner       .... off
 Static damping         CNVDamp         .... on
   Fraction old density DampFac         ....    0.7000
   Max. Damping (<1)    DampMax         ....    0.9800
   Min. Damping (>=0)   DampMin         ....    0.0000
   Turn off err/grad.   DampErr         ....    0.1000
 Fernandez-Rico         CNVRico         .... off

SCF Procedure:
 Maximum # iterations   MaxIter         ....   125
 SCF integral mode      SCFMode         .... Direct
   Integral package                     .... SHARK and LIBINT hybrid scheme
 Reset frequency        DirectResetFreq ....    20
 Integral Threshold     Thresh          ....  2.500e-11 Eh
 Primitive CutOff       TCut            ....  2.500e-12 Eh

Convergence Tolerance:
 Convergence Check Mode ConvCheckMode   .... Total+1el-Energy
 Convergence forced     ConvForced      .... 0
 Energy Change          TolE            ....  1.000e-08 Eh
 1-El. energy change                    ....  1.000e-05 Eh
 Orbital Gradient       TolG            ....  1.000e-05
 Orbital Rotation angle TolX            ....  1.000e-05
 DIIS Error             TolErr          ....  5.000e-07


Diagonalization of the overlap matrix:
Smallest eigenvalue                        ... 4.249e-03
Time for diagonalization                   ...    0.001 sec
Threshold for overlap eigenvalues          ... 1.000e-08
Number of eigenvalues below threshold      ... 0
Time for construction of square roots      ...    0.094 sec
Total time needed                          ...    0.096 sec

--------------------------------
INITIAL GUESS: MINIMAL BASIS EHT
--------------------------------
The minimal basis has 17 functions
EHT matrix was diagonalized
Basis set overlap was calculated now projecting the orbitals
Using GuessMode=FMatrix for the initial guess
C*T matrix was formed
Effective Fockian was calculated
Effective Fockian was diagonalized
Initial density was built
                      ------------------
                      INITIAL GUESS DONE
                      ------------------
-------------------
DFT GRID GENERATION
-------------------

General Integration Accuracy     IntAcc      ... 4.959
Radial Grid Type                 RadialGrid  ... OptM3 with GC (2021)
Angular Grid (max. ang.)         AngularGrid ... 6 (Lebedev-590)
Angular grid pruning method      GridPruning ... 4 (adaptive)
Weight generation scheme         WeightScheme... Becke
Basis function cutoff            BFCut       ... 1.0000e-11
Integration weight cutoff        WCut        ... 1.0000e-14
Angular grids for H and He will be reduced by one unit
Partially contracted basis set               ... off
Rotationally invariant grid construction     ... off

Total number of grid points                  ...    61487
Total number of batches                      ...      963
Average number of points per batch           ...       63
Average number of grid points per atom       ...    12297
Time for grid setup =    1.546 sec

--------------------
COSX GRID GENERATION
--------------------

GRIDX 1
-------
General Integration Accuracy     IntAcc      ... 4.020
Radial Grid Type                 RadialGrid  ... OptM3 with GC (2021)
Angular Grid (max. ang.)         AngularGrid ... 2 (Lebedev-110)
Angular grid pruning method      GridPruning ... 4 (adaptive)
Weight generation scheme         WeightScheme... Becke
Basis function cutoff            BFCut       ... 1.0000e-11
Integration weight cutoff        WCut        ... 1.0000e-14
Angular grids for H and He will be reduced by one unit
Partially contracted basis set               ... on
Rotationally invariant grid construction     ... off

Total number of grid points                  ...     7195
Total number of batches                      ...      115
Average number of points per batch           ...       62
Average number of grid points per atom       ...     1439
UseSFitting                                  ... on

GRIDX 2
-------
General Integration Accuracy     IntAcc      ... 4.338
Radial Grid Type                 RadialGrid  ... OptM3 with GC (2021)
Angular Grid (max. ang.)         AngularGrid ... 3 (Lebedev-194)
Angular grid pruning method      GridPruning ... 4 (adaptive)
Weight generation scheme         WeightScheme... Becke
Basis function cutoff            BFCut       ... 1.0000e-11
Integration weight cutoff        WCut        ... 1.0000e-14
Angular grids for H and He will be reduced by one unit
Partially contracted basis set               ... on
Rotationally invariant grid construction     ... off

Total number of grid points                  ...    15941
Total number of batches                      ...      250
Average number of points per batch           ...       63
Average number of grid points per atom       ...     3188
UseSFitting                                  ... on

GRIDX 3
-------
General Integration Accuracy     IntAcc      ... 4.871
Radial Grid Type                 RadialGrid  ... OptM3 with GC (2021)
Angular Grid (max. ang.)         AngularGrid ... 4 (Lebedev-302)
Angular grid pruning method      GridPruning ... 4 (adaptive)
Weight generation scheme         WeightScheme... Becke
Basis function cutoff            BFCut       ... 1.0000e-11
Integration weight cutoff        WCut        ... 1.0000e-14
Angular grids for H and He will be reduced by one unit
Partially contracted basis set               ... on
Rotationally invariant grid construction     ... off

Total number of grid points                  ...    30146
Total number of batches                      ...      474
Average number of points per batch           ...       63
Average number of grid points per atom       ...     6029
UseSFitting                                  ... on

Time for X-Grid setup             =    2.144 sec

--------------
SCF ITERATIONS
--------------
ITER       Energy         Delta-E        Max-DP      RMS-DP      [F,P]     Damp
               ***  Starting incremental Fock matrix formation  ***
  0   -147.8111870790   0.000000000000 0.25641575  0.01352026  0.5869546 0.7000
  1   -148.0379111860  -0.226724107023 0.14761973  0.00817750  0.3298517 0.7000
  2   -148.1444677781  -0.106556592105 0.09115055  0.00499663  0.2200753 0.7000
                               ***Turning on DIIS***
  3   -148.2201942209  -0.075726442797 0.06098585  0.00346528  0.1527747 0.7000
  4   -148.2757557232  -0.055561502269 0.04322990  0.00252415  0.1066749 0.7000
  5   -148.3147947176  -0.039038994394 0.10120639  0.00607636  0.0746300 0.0000
  6   -148.4073146343  -0.092519916701 0.00472402  0.00024726  0.0046672 0.0000
  7   -148.4073657923  -0.000051158000 0.00172394  0.00010309  0.0033378 0.0000
                      *** Initiating the SOSCF procedure ***
                           *** Shutting down DIIS ***
                      *** Re-Reading the Fockian *** 
                      *** Removing any level shift *** 
ITER      Energy       Delta-E        Grad      Rot      Max-DP    RMS-DP
  8   -148.40738058  -0.0000147890  0.000781  0.000781  0.001161  0.000054
               *** Restarting incremental Fock matrix formation ***
  9   -148.40738648  -0.0000059012  0.000192  0.000367  0.000508  0.000031
 10   -148.40738699  -0.0000005041  0.000119  0.000329  0.000403  0.000019
 11   -148.40738707  -0.0000000820  0.000083  0.000116  0.000145  0.000009
 12   -148.40738711  -0.0000000423  0.000036  0.000085  0.000102  0.000005
 13   -148.40738711  -0.0000000005  0.000049  0.000051  0.000064  0.000002
 14   -148.40738712  -0.0000000085  0.000005  0.000009  0.000015  0.000001
                  ***Gradient check signals convergence***
              ***Rediagonalizing the Fockian in SOSCF/NRSCF***

               *****************************************************
               *                     SUCCESS                       *
               *           SCF CONVERGED AFTER  15 CYCLES          *
               *****************************************************

Old exchange energy                            =     -7.964147230 Eh
New exchange energy                            =     -7.964149162 Eh
Exchange energy change after final integration =     -0.000001931 Eh
Total energy after final integration           =   -148.407389052 Eh
Final COS-X integration done in                =     0.371 sec

----------------
TOTAL SCF ENERGY
----------------

Total Energy       :         -148.40738905 Eh           -4038.37036 eV

Components:
Nuclear Repulsion  :           61.32324037 Eh            1668.69020 eV
Electronic Energy  :         -209.73062942 Eh           -5707.06057 eV
One Electron Energy:         -321.02201282 Eh           -8735.45307 eV
Two Electron Energy:          111.29138340 Eh            3028.39250 eV
Max COSX asymmetry :            0.00000067 Eh               0.00002 eV

Virial components:
Potential Energy   :         -295.73738537 Eh           -8047.42338 eV
Kinetic Energy     :          147.32999631 Eh            4009.05302 eV
Virial Ratio       :            2.00731279


DFT components:
N(Alpha)           :       11.000000063769 electrons
N(Beta)            :       11.000000063769 electrons
N(Total)           :       22.000000127539 electrons
E(X)               :      -10.624345142565 Eh       
E(C)               :       -0.954346870730 Eh       
E(XC)              :      -11.578692013295 Eh       
DFET-embed. en.    :        0.000000000000 Eh       

---------------
SCF CONVERGENCE
---------------

  Last Energy change         ...   -5.2506e-10  Tolerance :   1.0000e-08
  Last MAX-Density change    ...    4.4409e-16  Tolerance :   1.0000e-07
  Last RMS-Density change    ...    3.8317e-17  Tolerance :   5.0000e-09
  Last Orbital Gradient      ...    2.3944e-06  Tolerance :   1.0000e-05
  Last Orbital Rotation      ...    3.5323e-06  Tolerance :   1.0000e-05

             **** THE GBW FILE WAS UPDATED (pbeh-3c.gbw) ****
             **** DENSITY pbeh-3c.scfp WAS UPDATED ****
             **** ENERGY FILE WAS UPDATED (pbeh-3c.en.tmp) ****
             **** THE GBW FILE WAS UPDATED (pbeh-3c.gbw) ****
             **** DENSITY pbeh-3c.scfp WAS UPDATED ****
----------------
ORBITAL ENERGIES
----------------

  NO   OCC          E(Eh)            E(eV) 
   0   2.0000     -14.791295      -402.4916 
   1   2.0000     -14.714744      -400.4086 
   2   2.0000     -10.474716      -285.0315 
   3   2.0000      -1.223170       -33.2842 
   4   2.0000      -0.939050       -25.5528 
   5   2.0000      -0.626408       -17.0454 
   6   2.0000      -0.585032       -15.9195 
   7   2.0000      -0.546843       -14.8804 
   8   2.0000      -0.513721       -13.9791 
   9   2.0000      -0.451094       -12.2749 
  10   2.0000      -0.264496        -7.1973 
  11   0.0000      -0.010292        -0.2801 
  12   0.0000       0.054682         1.4880 
  13   0.0000       0.166168         4.5217 
  14   0.0000       0.240041         6.5319 
  15   0.0000       0.278113         7.5678 
  16   0.0000       0.357216         9.7203 
  17   0.0000       0.531787        14.4707 
  18   0.0000       0.544396        14.8138 
  19   0.0000       0.578343        15.7375 
  20   0.0000       0.669291        18.2123 
  21   0.0000       0.749625        20.3983 
  22   0.0000       0.801102        21.7991 
  23   0.0000       0.833582        22.6829 
  24   0.0000       0.911737        24.8096 
  25   0.0000       0.993335        27.0300 
  26   0.0000       1.006335        27.3838 
  27   0.0000       1.037262        28.2253 
  28   0.0000       1.117154        30.3993 
  29   0.0000       1.444249        39.3000 
  30   0.0000       1.451572        39.4993 
  31   0.0000       1.457044        39.6482 
  32   0.0000       1.505559        40.9683 
  33   0.0000       1.633847        44.4592 
  34   0.0000       1.661910        45.2229 
  35   0.0000       1.714754        46.6608 
  36   0.0000       1.926566        52.4245 
  37   0.0000       2.038119        55.4600 
  38   0.0000       2.100731        57.1638 
  39   0.0000       2.203010        59.9469 
  40   0.0000       2.223919        60.5159 
  41   0.0000       2.354957        64.0816 
  42   0.0000       2.722782        74.0907 
  43   0.0000       2.926718        79.6400 
  44   0.0000       2.981754        81.1377 
  45   0.0000       3.536244        96.2261 
  46   0.0000      13.691245       372.5577 
  47   0.0000      18.685003       508.4448 
  48   0.0000      19.566069       532.4198 

                    ********************************
                    * MULLIKEN POPULATION ANALYSIS *
                    ********************************

-----------------------
MULLIKEN ATOMIC CHARGES
-----------------------
   0 N :   -0.154660
   1 N :    0.147959
   2 C :   -0.501328
   3 H :    0.254014
   4 H :    0.254014
Sum of atomic charges:    0.0000000

--------------------------------
MULLIKEN REDUCED ORBITAL CHARGES
--------------------------------
  0 N s       :     3.743811  s :     3.743811
      pz      :     1.201345  p :     3.347407
      px      :     0.793149
      py      :     1.352913
      dz2     :     0.023014  d :     0.063442
      dxz     :     0.022060
      dyz     :     0.018355
      dx2y2   :     0.000012
      dxy     :     0.000000
  1 N s       :     3.366337  s :     3.366337
      pz      :     0.979769  p :     3.403535
      px      :     1.205210
      py      :     1.218556
      dz2     :     0.012500  d :     0.082168
      dxz     :     0.020327
      dyz     :     0.049330
      dx2y2   :     0.000012
      dxy     :     0.000000
  2 C s       :     3.223215  s :     3.223215
      pz      :     0.756069  p :     3.231326
      px      :     1.123110
      py      :     1.352147
      dz2     :     0.018395  d :     0.046787
      dxz     :     0.013222
      dyz     :     0.008700
      dx2y2   :     0.006470
      dxy     :     0.000000
  3 H s       :     0.745986  s :     0.745986
  4 H s       :     0.745986  s :     0.745986


                     *******************************
                     * LOEWDIN POPULATION ANALYSIS *
                     *******************************

----------------------
LOEWDIN ATOMIC CHARGES
----------------------
   0 N :   -0.066610
   1 N :    0.180269
   2 C :   -0.423032
   3 H :    0.154686
   4 H :    0.154686

-------------------------------
LOEWDIN REDUCED ORBITAL CHARGES
-------------------------------
  0 N s       :     3.440246  s :     3.440246
      pz      :     1.352587  p :     3.513268
      px      :     0.816603
      py      :     1.344078
      dz2     :     0.048406  d :     0.113096
      dxz     :     0.034107
      dyz     :     0.030571
      dx2y2   :     0.000012
      dxy     :     0.000000
  1 N s       :     3.058628  s :     3.058628
      pz      :     1.267264  p :     3.578062
      px      :     1.149169
      py      :     1.161630
      dz2     :     0.034516  d :     0.183042
      dxz     :     0.041385
      dyz     :     0.107130
      dx2y2   :     0.000011
      dxy     :     0.000000
  2 C s       :     2.946441  s :     2.946441
      pz      :     0.929755  p :     3.380292
      px      :     1.108228
      py      :     1.342310
      dz2     :     0.044080  d :     0.096298
      dxz     :     0.030116
      dyz     :     0.014281
      dx2y2   :     0.007821
      dxy     :     0.000000
  3 H s       :     0.845314  s :     0.845314
  4 H s       :     0.845314  s :     0.845314


                      *****************************
                      * MAYER POPULATION ANALYSIS *
                      *****************************

  NA   - Mulliken gross atomic population
  ZA   - Total nuclear charge
  QA   - Mulliken gross atomic charge
  VA   - Mayer's total valence
  BVA  - Mayer's bonded valence
  FA   - Mayer's free valence

  ATOM       NA         ZA         QA         VA         BVA        FA
  0 N      7.1547     7.0000    -0.1547     2.8184     2.8184     0.0000
  1 N      6.8520     7.0000     0.1480     3.8722     3.8722     0.0000
  2 C      6.5013     6.0000    -0.5013     3.5656     3.5656     0.0000
  3 H      0.7460     1.0000     0.2540     0.9138     0.9138     0.0000
  4 H      0.7460     1.0000     0.2540     0.9138     0.9138     0.0000

  Mayer bond orders larger than 0.100000
B(  0-N ,  1-N ) :   2.4327 B(  0-N ,  2-C ) :   0.3360 B(  1-N ,  2-C ) :   1.4413 
B(  2-C ,  3-H ) :   0.8941 B(  2-C ,  4-H ) :   0.8941 

-------
TIMINGS
-------

Total SCF time: 0 days 0 hours 0 min 56 sec 

Total time                  ....      56.439 sec
Sum of individual times     ....      50.218 sec  ( 89.0%)

Fock matrix formation       ....      41.406 sec  ( 73.4%)
  Split-RI-J                ....       5.226 sec  ( 12.6% of F)
  Chain of spheres X        ....       6.344 sec  ( 15.3% of F)
  XC integration            ....      14.142 sec  ( 34.2% of F)
    Basis function eval.    ....       0.619 sec  (  4.4% of XC)
    Density eval.           ....       0.504 sec  (  3.6% of XC)
    XC-Functional eval.     ....       0.639 sec  (  4.5% of XC)
    XC-Potential eval.      ....       0.216 sec  (  1.5% of XC)
Diagonalization             ....       0.695 sec  (  1.2%)
Density matrix formation    ....       0.038 sec  (  0.1%)
Population analysis         ....       1.194 sec  (  2.1%)
Initial guess               ....       0.002 sec  (  0.0%)
Orbital Transformation      ....       0.000 sec  (  0.0%)
Orbital Orthonormalization  ....       0.000 sec  (  0.0%)
DIIS solution               ....       2.114 sec  (  3.7%)
SOSCF solution              ....       1.078 sec  (  1.9%)
Grid generation             ....       3.690 sec  (  6.5%)

Maximum memory used throughout the entire SCF-calculation: 45.1 MB


-------------------------------------------------------------------------------
                          DFT DISPERSION CORRECTION                            
                                                                               
                              DFTD3 V3.1  Rev 1                                
                          USING Becke-Johnson damping                          
-------------------------------------------------------------------------------
The PBEh-3c composite method is recognized
Using three-body term ABC
Active option DFTDOPT                   ...         4   

molecular C6(AA) [au] = 312.797559 


            DFT-D V3
 parameters
 s6 scaling factor         :     1.0000 
 a1 scaling factor         :     0.4860 
 s8 scaling factor         :     0.0000 
 a2 scaling factor         :     4.5000 
 Damping factor alpha9(ATM):    16.0000 
 ad hoc parameters k1-k3   :    16.0000     1.3333    -4.0000 

 Edisp/kcal,au: -0.768431889606  -0.001224574033 
 E6   /kcal   :  -0.768503648 
 E8   /kcal   :  -0.000000000 
 E6(ABC)      :   0.000071759 
 % E8         :   0.000000000 
 % E6(ABC)    :  -0.009338317 

-------------------------   ----------------
Dispersion correction           -0.001224574
-------------------------   ----------------

------------------   -----------------
gCP correction             0.005159317
------------------   -----------------

-------------------------   --------------------
FINAL SINGLE POINT ENERGY      -148.403454308555
-------------------------   --------------------


                            ***************************************
                            *     ORCA property calculations      *
                            ***************************************

                                    ---------------------
                                    Active property flags
                                    ---------------------
   (+) Dipole Moment


------------------------------------------------------------------------------
                       ORCA ELECTRIC PROPERTIES CALCULATION
------------------------------------------------------------------------------

Dipole Moment Calculation                       ... on
Quadrupole Moment Calculation                   ... off
Polarizability Calculation                      ... off
GBWName                                         ... pbeh-3c.gbw
Electron density                                ... pbeh-3c.scfp
The origin for moment calculation is the CENTER OF MASS  = ( 0.000000,  0.000000  1.273823)

-------------
DIPOLE MOMENT
-------------
                                X             Y             Z
Electronic contribution:     -0.00000      -0.00000       2.61724
Nuclear contribution   :      0.00000       0.00000      -3.22473
                        -----------------------------------------
Total Dipole Moment    :     -0.00000      -0.00000      -0.60749
                        -----------------------------------------
Magnitude (a.u.)       :      0.60749
Magnitude (Debye)      :      1.54411



--------------------
Rotational spectrum 
--------------------
 
Rotational constants in cm-1:     9.225689     0.378670     0.363740 
Rotational constants in MHz : 276579.198096 11352.230920 10904.648149 

 Dipole components along the rotational axes: 
x,y,z [a.u.] :    -0.607486    -0.000000    -0.000000 
x,y,z [Debye]:    -1.544106    -0.000000    -0.000000 

 

Timings for individual modules:

Sum of individual times         ...       60.390 sec (=   1.007 min)
GTO integral calculation        ...        3.258 sec (=   0.054 min)   5.4 %
SCF iterations                  ...       57.132 sec (=   0.952 min)  94.6 %
                             ****ORCA TERMINATED NORMALLY****
TOTAL RUN TIME: 0 days 0 hours 1 minutes 11 seconds 914 msec
