
                                 *****************
                                 * O   R   C   A *
                                 *****************

                                            #,                                       
                                            ###                                      
                                            ####                                     
                                            #####                                    
                                            ######                                   
                                           ########,                                 
                                     ,,################,,,,,                         
                               ,,#################################,,                 
                          ,,##########################################,,             
                       ,#########################################, ''#####,          
                    ,#############################################,,   '####,        
                  ,##################################################,,,,####,       
                ,###########''''           ''''###############################       
              ,#####''   ,,,,##########,,,,          '''####'''          '####       
            ,##' ,,,,###########################,,,                        '##       
           ' ,,###''''                  '''############,,,                           
         ,,##''                                '''############,,,,        ,,,,,,###''
      ,#''                                            '''#######################'''  
     '                                                          ''''####''''         
             ,#######,   #######,   ,#######,      ##                                
            ,#'     '#,  ##    ##  ,#'     '#,    #''#        ######   ,####,        
            ##       ##  ##   ,#'  ##            #'  '#       #        #'  '#        
            ##       ##  #######   ##           ,######,      #####,   #    #        
            '#,     ,#'  ##    ##  '#,     ,#' ,#      #,         ##   #,  ,#        
             '#######'   ##     ##  '#######'  #'      '#     #####' # '####'        



                  #######################################################
                  #                        -***-                        #
                  #          Department of theory and spectroscopy      #
                  #    Directorship and core code : Frank Neese         #
                  #        Max Planck Institute fuer Kohlenforschung    #
                  #                Kaiser Wilhelm Platz 1               #
                  #                 D-45470 Muelheim/Ruhr               #
                  #                      Germany                        #
                  #                                                     #
                  #                  All rights reserved                #
                  #                        -***-                        #
                  #######################################################


                         Program Version 5.0.3 -  RELEASE  -


 With contributions from (in alphabetic order):
   Daniel Aravena         : Magnetic Suceptibility
   Michael Atanasov       : Ab Initio Ligand Field Theory (pilot matlab implementation)
   Alexander A. Auer      : GIAO ZORA, VPT2 properties, NMR spectrum
   Ute Becker             : Parallelization
   Giovanni Bistoni       : ED, misc. LED, open-shell LED, HFLD
   Martin Brehm           : Molecular dynamics
   Dmytro Bykov           : SCF Hessian
   Vijay G. Chilkuri      : MRCI spin determinant printing, contributions to CSF-ICE
   Dipayan Datta          : RHF DLPNO-CCSD density
   Achintya Kumar Dutta   : EOM-CC, STEOM-CC
   Dmitry Ganyushin       : Spin-Orbit,Spin-Spin,Magnetic field MRCI
   Miquel Garcia          : C-PCM and meta-GGA Hessian, CC/C-PCM, Gaussian charge scheme
   Yang Guo               : DLPNO-NEVPT2, F12-NEVPT2, CIM, IAO-localization
   Andreas Hansen         : Spin unrestricted coupled pair/coupled cluster methods
   Benjamin Helmich-Paris : MC-RPA, TRAH-SCF, COSX integrals
   Lee Huntington         : MR-EOM, pCC
   Robert Izsak           : Overlap fitted RIJCOSX, COSX-SCS-MP3, EOM
   Marcus Kettner         : VPT2
   Christian Kollmar      : KDIIS, OOCD, Brueckner-CCSD(T), CCSD density, CASPT2, CASPT2-K
   Simone Kossmann        : Meta GGA functionals, TD-DFT gradient, OOMP2, MP2 Hessian
   Martin Krupicka        : Initial AUTO-CI
   Lucas Lang             : DCDCAS
   Marvin Lechner         : AUTO-CI (C++ implementation), FIC-MRCC
   Dagmar Lenk            : GEPOL surface, SMD
   Dimitrios Liakos       : Extrapolation schemes; Compound Job, initial MDCI parallelization
   Dimitrios Manganas     : Further ROCIS development; embedding schemes
   Dimitrios Pantazis     : SARC Basis sets
   Anastasios Papadopoulos: AUTO-CI, single reference methods and gradients
   Taras Petrenko         : DFT Hessian,TD-DFT gradient, ASA, ECA, R-Raman, ABS, FL, XAS/XES, NRVS
   Peter Pinski           : DLPNO-MP2, DLPNO-MP2 Gradient
   Christoph Reimann      : Effective Core Potentials
   Marius Retegan         : Local ZFS, SOC
   Christoph Riplinger    : Optimizer, TS searches, QM/MM, DLPNO-CCSD(T), (RO)-DLPNO pert. Triples
   Tobias Risthaus        : Range-separated hybrids, TD-DFT gradient, RPA, STAB
   Michael Roemelt        : Original ROCIS implementation
   Masaaki Saitow         : Open-shell DLPNO-CCSD energy and density
   Barbara Sandhoefer     : DKH picture change effects
   Avijit Sen             : IP-ROCIS
   Kantharuban Sivalingam : CASSCF convergence, NEVPT2, FIC-MRCI
   Bernardo de Souza      : ESD, SOC TD-DFT
   Georgi Stoychev        : AutoAux, RI-MP2 NMR, DLPNO-MP2 response
   Willem Van den Heuvel  : Paramagnetic NMR
   Boris Wezisla          : Elementary symmetry handling
   Frank Wennmohs         : Technical directorship


 We gratefully acknowledge several colleagues who have allowed us to
 interface, adapt or use parts of their codes:
   Stefan Grimme, W. Hujo, H. Kruse, P. Pracht,  : VdW corrections, initial TS optimization,
                  C. Bannwarth, S. Ehlert          DFT functionals, gCP, sTDA/sTD-DF
   Ed Valeev, F. Pavosevic, A. Kumar             : LibInt (2-el integral package), F12 methods
   Garnet Chan, S. Sharma, J. Yang, R. Olivares  : DMRG
   Ulf Ekstrom                                   : XCFun DFT Library
   Mihaly Kallay                                 : mrcc  (arbitrary order and MRCC methods)
   Jiri Pittner, Ondrej Demel                    : Mk-CCSD
   Frank Weinhold                                : gennbo (NPA and NBO analysis)
   Christopher J. Cramer and Donald G. Truhlar   : smd solvation model
   Lars Goerigk                                  : TD-DFT with DH, B97 family of functionals
   V. Asgeirsson, H. Jonsson                     : NEB implementation
   FAccTs GmbH                                   : IRC, NEB, NEB-TS, DLPNO-Multilevel, CI-OPT
                                                   MM, QMMM, 2- and 3-layer-ONIOM, Crystal-QMMM,
                                                   LR-CPCM, SF, NACMEs, symmetry and pop. for TD-DFT,
                                                   nearIR, NL-DFT gradient (VV10), updates on ESD,
                                                   ML-optimized integration grids
   S Lehtola, MJT Oliveira, MAL Marques          : LibXC Library
   Liviu Ungur et al                             : ANISO software


 Your calculation uses the libint2 library for the computation of 2-el integrals
 For citations please refer to: http://libint.valeyev.net

 Your ORCA version has been built with support for libXC version: 5.1.0
 For citations please refer to: https://tddft.org/programs/libxc/

 This ORCA versions uses:
   CBLAS   interface :  Fast vector & matrix operations
   LAPACKE interface :  Fast linear algebra routines
   SCALAPACK package :  Parallel linear algebra routines
   Shared memory     :  Shared parallel matrices
   BLAS/LAPACK       :  OpenBLAS 0.3.15  USE64BITINT DYNAMIC_ARCH NO_AFFINITY Haswell SINGLE_THREADED
        Core in use  :  Haswell
   Copyright (c) 2011-2014, The OpenBLAS Project




***************************************
The coordinates will be read from file: 7p1.xyz
***************************************


Your calculation utilizes the geometrical counterpoise correction gCP
Please cite in your paper:
H.Kruse, S. Grimme J.Chem.Phys., 136, (2012), 154101 
   

Your calculation utilizes the atom-pairwise dispersion correction
with the Becke-Johnson damping scheme (D3BJ)
Cite in your paper:
S.Grimme, S.Ehrlich, L.Goerigk, J Comput Chem, (2011), 32, 1456–1465 
S.Grimme, J.Antony, S.Ehrlich and H.Krieg, J.Chem.Phys., 132, (2010), 154104 
   

Your calculation employs the composite approach PBEh-3c.
Please cite in your paper:
S. Grimme, J. G. Brandenburg, C. Bannwarth, A. Hansen J.Chem.Phys., 143, (2015), 054107 
   

================================================================================

----- Orbital basis set information -----
Your calculation utilizes the basis: def2-mSVP

----- AuxJ basis set information -----
Your calculation utilizes the auxiliary basis: def2/J
   F. Weigend, Phys. Chem. Chem. Phys. 8, 1057 (2006).

================================================================================
                                        WARNINGS
                       Please study these warnings very carefully!
================================================================================


WARNING: your system is open-shell and RHF/RKS was chosen
  ===> : WILL SWITCH to UHF/UKS


INFO   : the flag for use of the SHARK integral package has been found!

================================================================================
                                       INPUT FILE
================================================================================
NAME = pbeh-3c.inp
|  1> ! PBEh-3c def2/J TightSCF DefGrid3
|  2> 
|  3> %maxcore 60000
|  4> 
|  5> %pal
|  6> nprocs 4
|  7> end
|  8> 
|  9> *xyzfile 1 2 7p1.xyz
| 10> 
| 11>                          ****END OF INPUT****
================================================================================

                       ****************************
                       * Single Point Calculation *
                       ****************************

---------------------------------
CARTESIAN COORDINATES (ANGSTROEM)
---------------------------------
  O     -0.306705    2.645116    0.000000
  C     -0.631843    1.567977    0.000000
  C     -1.040964    0.261546    0.000000
  H     -2.119469    0.121711    0.000000
  C     -0.140870   -0.804701    0.000000
  H     -0.587715   -1.793691    0.000000
  C      1.233306   -0.690247    0.000000
  H      1.740317    0.269876    0.000000
  H      1.853944   -1.577587    0.000000

----------------------------
CARTESIAN COORDINATES (A.U.)
----------------------------
  NO LB      ZA    FRAG     MASS         X           Y           Z
   0 O     8.0000    0    15.999   -0.579589    4.998546    0.000000
   1 C     6.0000    0    12.011   -1.194011    2.963047    0.000000
   2 C     6.0000    0    12.011   -1.967137    0.494250    0.000000
   3 H     1.0000    0     1.008   -4.005216    0.230001    0.000000
   4 C     6.0000    0    12.011   -0.266206   -1.520665    0.000000
   5 H     1.0000    0     1.008   -1.110621   -3.389584    0.000000
   6 C     6.0000    0    12.011    2.330610   -1.304377    0.000000
   7 H     1.0000    0     1.008    3.288723    0.509992    0.000000
   8 H     1.0000    0     1.008    3.503447   -2.981208    0.000000

--------------------------------
INTERNAL COORDINATES (ANGSTROEM)
--------------------------------
 O      0   0   0     0.000000000000     0.00000000     0.00000000
 C      1   0   0     1.125141991910     0.00000000     0.00000000
 C      2   1   0     1.368993203471   179.40818567     0.00000000
 H      3   2   1     1.087532103118   114.77594890     0.00000000
 C      3   2   1     1.395367877589   122.44151886   180.00000000
 H      5   3   2     1.085251338759   115.51553739   180.00000000
 C      5   3   2     1.378934102705   125.40890098     0.00000000
 H      7   5   3     1.085770381670   122.59831432     0.00000000
 H      7   5   3     1.082850769814   120.20919653   180.00000000

---------------------------
INTERNAL COORDINATES (A.U.)
---------------------------
 O      0   0   0     0.000000000000     0.00000000     0.00000000
 C      1   0   0     2.126210226485     0.00000000     0.00000000
 C      2   1   0     2.587022233760   179.40818567     0.00000000
 H      3   2   1     2.055137836740   114.77594890     0.00000000
 C      3   2   1     2.636863144714   122.44151886   180.00000000
 H      5   3   2     2.050827816725   115.51553739   180.00000000
 C      5   3   2     2.605807810836   125.40890098     0.00000000
 H      7   5   3     2.051808665680   122.59831432     0.00000000
 H      7   5   3     2.046291398854   120.20919653   180.00000000

---------------------
BASIS SET INFORMATION
---------------------
There are 3 groups of distinct atoms

 Group   1 Type O   : 8s4p1d contracted to 4s2p1d pattern {5111/31/1}
 Group   2 Type C   : 8s4p1d contracted to 4s2p1d pattern {5111/31/1}
 Group   3 Type H   : 4s contracted to 2s pattern {31}

Atom   0O    basis set group =>   1
Atom   1C    basis set group =>   2
Atom   2C    basis set group =>   2
Atom   3H    basis set group =>   3
Atom   4C    basis set group =>   2
Atom   5H    basis set group =>   3
Atom   6C    basis set group =>   2
Atom   7H    basis set group =>   3
Atom   8H    basis set group =>   3
---------------------------------
AUXILIARY/J BASIS SET INFORMATION
---------------------------------
There are 3 groups of distinct atoms

 Group   1 Type O   : 12s5p4d2f1g contracted to 6s4p3d1f1g pattern {711111/2111/211/2/1}
 Group   2 Type C   : 12s5p4d2f1g contracted to 6s4p3d1f1g pattern {711111/2111/211/2/1}
 Group   3 Type H   : 5s2p1d contracted to 3s1p1d pattern {311/2/1}

Atom   0O    basis set group =>   1
Atom   1C    basis set group =>   2
Atom   2C    basis set group =>   2
Atom   3H    basis set group =>   3
Atom   4C    basis set group =>   2
Atom   5H    basis set group =>   3
Atom   6C    basis set group =>   2
Atom   7H    basis set group =>   3
Atom   8H    basis set group =>   3


           ************************************************************
           *        Program running with 4 parallel MPI-processes     *
           *              working on a common directory               *
           ************************************************************
------------------------------------------------------------------------------
                           ORCA GTO INTEGRAL CALCULATION
                           -- RI-GTO INTEGRALS CHOSEN --
------------------------------------------------------------------------------
------------------------------------------------------------------------------
                   ___                                                        
                  /   \      - P O W E R E D   B Y -                         
                 /     \                                                     
                 |  |  |   _    _      __       _____    __    __             
                 |  |  |  | |  | |    /  \     |  _  \  |  |  /  |          
                  \  \/   | |  | |   /    \    | | | |  |  | /  /          
                 / \  \   | |__| |  /  /\  \   | |_| |  |  |/  /          
                |  |  |   |  __  | /  /__\  \  |    /   |      \           
                |  |  |   | |  | | |   __   |  |    \   |  |\   \          
                \     /   | |  | | |  |  |  |  | |\  \  |  | \   \       
                 \___/    |_|  |_| |__|  |__|  |_| \__\ |__|  \__/        
                                                                              
                      - O R C A' S   B I G   F R I E N D -                    
                                      &                                       
                       - I N T E G R A L  F E E D E R -                       
                                                                              
 v1 FN, 2020, v2 2021                                                         
------------------------------------------------------------------------------


Reading SHARK input file pbeh-3c.SHARKINP.tmp ... ok
----------------------
SHARK INTEGRAL PACKAGE
----------------------

Number of atoms                             ...      9
Number of basis functions                   ...     83
Number of shells                            ...     43
Maximum angular momentum                    ...      2
Integral batch strategy                     ... SHARK/LIBINT Hybrid
RI-J (if used) integral strategy            ... SPLIT-RIJ (Revised 2003 algorithm where possible)
Printlevel                                  ...      1
Contraction scheme used                     ... SEGMENTED contraction
Coulomb Range Separation                    ... NOT USED
Exchange Range Separation                   ... NOT USED
Finite Nucleus Model                        ... NOT USED
Auxiliary Coulomb fitting basis             ... AVAILABLE
   # of basis functions in Aux-J            ...    289
   # of shells in Aux-J                     ...     95
   Maximum angular momentum in Aux-J        ...      4
Auxiliary J/K fitting basis                 ... NOT available
Auxiliary Correlation fitting basis         ... NOT available
Auxiliary 'external' fitting basis          ... NOT available
Integral threshold                          ...     2.500000e-11
Primitive cut-off                           ...     2.500000e-12
Primitive pair pre-selection threshold      ...     2.500000e-12

Calculating pre-screening integrals         ... done (  0.1 sec) Dimension = 43
Organizing shell pair data                  ... done (  0.5 sec)
Shell pair information
Total number of shell pairs                 ...       946
Shell pairs after pre-screening             ...       891
Total number of primitive shell pairs       ...      3398
Primitive shell pairs kept                  ...      2463
          la=0 lb=0:    364 shell pairs
          la=1 lb=0:    274 shell pairs
          la=1 lb=1:     55 shell pairs
          la=2 lb=0:    133 shell pairs
          la=2 lb=1:     50 shell pairs
          la=2 lb=2:     15 shell pairs

Calculating one electron integrals          ... done (  0.0 sec)
Calculating RI/J V-Matrix + Cholesky decomp.... done (  1.2 sec)
Calculating Nuclear repulsion               ... done (  0.2 sec) ENN=    142.742359213856 Eh

SHARK setup successfully completed in   3.9 seconds

Maximum memory used throughout the entire GTOINT-calculation: 9.6 MB


           ************************************************************
           *        Program running with 4 parallel MPI-processes     *
           *              working on a common directory               *
           ************************************************************
-------------------------------------------------------------------------------
                                 ORCA SCF
-------------------------------------------------------------------------------

------------
SCF SETTINGS
------------
Hamiltonian:
 Density Functional     Method          .... DFT(GTOs)
 Exchange Functional    Exchange        .... PBE
   PBE kappa parameter   XKappa         ....  1.024500
   PBE mue parameter    XMuePBE         ....  0.123457
 Correlation Functional Correlation     .... PBE
   PBE beta parameter  CBetaPBE         ....  0.030000
 LDA part of GGA corr.  LDAOpt          .... PW91-LDA
 Gradients option       PostSCFGGA      .... off
 Hybrid DFT is turned on
   Fraction HF Exchange ScalHFX         ....  0.420000
   Scaling of DF-GGA-X  ScalDFX         ....  0.580000
   Scaling of DF-GGA-C  ScalDFC         ....  1.000000
   Scaling of DF-LDA-C  ScalLDAC        ....  1.000000
   Perturbative correction              ....  0.000000
   Density functional embedding theory  .... OFF
 RI-approximation to the Coulomb term is turned on
   Number of AuxJ basis functions       .... 289
   RIJ-ON(X) (HFX calculated with O(N)) .... on
   Number of AuxJ basis functions       .... 289
   RIJ-COSX (HFX calculated with COS-X)).... on


General Settings:
 Integral files         IntName         .... pbeh-3c
 Hartree-Fock type      HFTyp           .... UHF
 Total Charge           Charge          ....    1
 Multiplicity           Mult            ....    2
 Number of Electrons    NEL             ....   35
 Basis Dimension        Dim             ....   83
 Nuclear Repulsion      ENuc            ....    142.7423592139 Eh

Convergence Acceleration:
 DIIS                   CNVDIIS         .... on
   Start iteration      DIISMaxIt       ....    12
   Startup error        DIISStart       ....  0.200000
   # of expansion vecs  DIISMaxEq       ....     5
   Bias factor          DIISBfac        ....   1.050
   Max. coefficient     DIISMaxC        ....  10.000
 Trust-Rad. Augm. Hess. CNVTRAH         .... auto
   Auto Start mean grad. ratio tolernc. ....  1.125000
   Auto Start start iteration           ....    20
   Auto Start num. interpolation iter.  ....    10
   Max. Number of Micro iterations      ....    16
   Max. Number of Macro iterations      .... Maxiter - #DIIS iter
   Number of Davidson start vectors     ....     2
   Converg. threshold I  (grad. norm)   ....   1.000e-05
   Converg. threshold II (energy diff.) ....   1.000e-08
   Grad. Scal. Fac. for Micro threshold ....   0.100
   Minimum threshold for Micro iter.    ....   0.010
   NR start threshold (gradient norm)   ....   0.001
   Initial trust radius                 ....   0.400
   Minimum AH scaling param. (alpha)    ....   1.000
   Maximum AH scaling param. (alpha)    .... 1000.000
   Orbital update algorithm             .... Taylor
   White noise on init. David. guess    .... on
   Maximum white noise                  ....   0.010
   Quad. conv. algorithm                .... NR
   COSX micro iterations for RIJONX calc.... off
 SOSCF                  CNVSOSCF        .... off
 Level Shifting         CNVShift        .... on
   Level shift para.    LevelShift      ....    0.2500
   Turn off err/grad.   ShiftErr        ....    0.0010
 Zerner damping         CNVZerner       .... off
 Static damping         CNVDamp         .... on
   Fraction old density DampFac         ....    0.7000
   Max. Damping (<1)    DampMax         ....    0.9800
   Min. Damping (>=0)   DampMin         ....    0.0000
   Turn off err/grad.   DampErr         ....    0.1000
 Fernandez-Rico         CNVRico         .... off

SCF Procedure:
 Maximum # iterations   MaxIter         ....   125
 SCF integral mode      SCFMode         .... Direct
   Integral package                     .... SHARK and LIBINT hybrid scheme
 Reset frequency        DirectResetFreq ....    20
 Integral Threshold     Thresh          ....  2.500e-11 Eh
 Primitive CutOff       TCut            ....  2.500e-12 Eh

Convergence Tolerance:
 Convergence Check Mode ConvCheckMode   .... Total+1el-Energy
 Convergence forced     ConvForced      .... 0
 Energy Change          TolE            ....  1.000e-08 Eh
 1-El. energy change                    ....  1.000e-05 Eh
 DIIS Error             TolErr          ....  5.000e-07


Diagonalization of the overlap matrix:
Smallest eigenvalue                        ... 2.129e-03
Time for diagonalization                   ...    0.002 sec
Threshold for overlap eigenvalues          ... 1.000e-08
Number of eigenvalues below threshold      ... 0
Time for construction of square roots      ...    0.259 sec
Total time needed                          ...    0.453 sec

--------------------------------
INITIAL GUESS: MINIMAL BASIS EHT
--------------------------------
The minimal basis has 29 functions
EHT matrix was diagonalized
Basis set overlap was calculated now projecting the orbitals
Using GuessMode=FMatrix for the initial guess
C*T matrix was formed
Effective Fockian was calculated
Effective Fockian was diagonalized
Initial density was built
                      ------------------
                      INITIAL GUESS DONE
                      ------------------
-------------------
DFT GRID GENERATION
-------------------

General Integration Accuracy     IntAcc      ... 4.959
Radial Grid Type                 RadialGrid  ... OptM3 with GC (2021)
Angular Grid (max. ang.)         AngularGrid ... 6 (Lebedev-590)
Angular grid pruning method      GridPruning ... 4 (adaptive)
Weight generation scheme         WeightScheme... Becke
Basis function cutoff            BFCut       ... 1.0000e-11
Integration weight cutoff        WCut        ... 1.0000e-14
Angular grids for H and He will be reduced by one unit
Partially contracted basis set               ... off
Rotationally invariant grid construction     ... off

Total number of grid points                  ...   107600
Total number of batches                      ...     1685
Average number of points per batch           ...       63
Average number of grid points per atom       ...    11956
Time for grid setup =    2.679 sec

--------------------
COSX GRID GENERATION
--------------------

GRIDX 1
-------
General Integration Accuracy     IntAcc      ... 4.020
Radial Grid Type                 RadialGrid  ... OptM3 with GC (2021)
Angular Grid (max. ang.)         AngularGrid ... 2 (Lebedev-110)
Angular grid pruning method      GridPruning ... 4 (adaptive)
Weight generation scheme         WeightScheme... Becke
Basis function cutoff            BFCut       ... 1.0000e-11
Integration weight cutoff        WCut        ... 1.0000e-14
Angular grids for H and He will be reduced by one unit
Partially contracted basis set               ... on
Rotationally invariant grid construction     ... off

Total number of grid points                  ...    12353
Total number of batches                      ...      198
Average number of points per batch           ...       62
Average number of grid points per atom       ...     1373
UseSFitting                                  ... on

GRIDX 2
-------
General Integration Accuracy     IntAcc      ... 4.338
Radial Grid Type                 RadialGrid  ... OptM3 with GC (2021)
Angular Grid (max. ang.)         AngularGrid ... 3 (Lebedev-194)
Angular grid pruning method      GridPruning ... 4 (adaptive)
Weight generation scheme         WeightScheme... Becke
Basis function cutoff            BFCut       ... 1.0000e-11
Integration weight cutoff        WCut        ... 1.0000e-14
Angular grids for H and He will be reduced by one unit
Partially contracted basis set               ... on
Rotationally invariant grid construction     ... off

Total number of grid points                  ...    27252
Total number of batches                      ...      431
Average number of points per batch           ...       63
Average number of grid points per atom       ...     3028
UseSFitting                                  ... on

GRIDX 3
-------
General Integration Accuracy     IntAcc      ... 4.871
Radial Grid Type                 RadialGrid  ... OptM3 with GC (2021)
Angular Grid (max. ang.)         AngularGrid ... 4 (Lebedev-302)
Angular grid pruning method      GridPruning ... 4 (adaptive)
Weight generation scheme         WeightScheme... Becke
Basis function cutoff            BFCut       ... 1.0000e-11
Integration weight cutoff        WCut        ... 1.0000e-14
Angular grids for H and He will be reduced by one unit
Partially contracted basis set               ... on
Rotationally invariant grid construction     ... off

Total number of grid points                  ...    51709
Total number of batches                      ...      812
Average number of points per batch           ...       63
Average number of grid points per atom       ...     5745
UseSFitting                                  ... on

Time for X-Grid setup             =    5.773 sec

--------------
SCF ITERATIONS
--------------
ITER       Energy         Delta-E        Max-DP      RMS-DP      [F,P]     Damp
               ***  Starting incremental Fock matrix formation  ***
  0   -228.5087573996   0.000000000000 0.05704284  0.00289520  0.2319776 0.7000
  1   -228.7360424578  -0.227285058256 0.03873696  0.00185323  0.1460606 0.7000
                               ***Turning on DIIS***
  2   -228.8676045641  -0.131562106297 0.02738551  0.00121577  0.1033533 0.7000
  3   -228.9614353503  -0.093830786168 0.06841788  0.00311014  0.0728279 0.0000
  4   -229.1865316797  -0.225096329451 0.02053539  0.00065500  0.0196392 0.0000
  5   -229.1872306548  -0.000698975101 0.00903381  0.00026563  0.0234789 0.0000
  6   -229.1893835814  -0.002152926528 0.00289958  0.00010016  0.0045256 0.0000
  7   -229.1895704070  -0.000186825662 0.00220381  0.00006794  0.0021557 0.0000
  8   -229.1896448701  -0.000074463084 0.00255877  0.00005741  0.0015778 0.0000
  9   -229.1896841654  -0.000039295264 0.00180251  0.00004253  0.0010265 0.0000
 10   -229.1897046621  -0.000020496740 0.00232719  0.00005520  0.0005940 0.0000
               *** Restarting incremental Fock matrix formation ***
                                   *** Resetting DIIS ***
 11   -229.1897150655  -0.000010403360 0.00024075  0.00001035  0.0001638 0.0000
 12   -229.1897157919  -0.000000726444 0.00019480  0.00000504  0.0001632 0.0000
 13   -229.1897160675  -0.000000275541 0.00019346  0.00000665  0.0000781 0.0000
 14   -229.1897162946  -0.000000227090 0.00009678  0.00000306  0.0000896 0.0000
 15   -229.1897163476  -0.000000053044 0.00004269  0.00000130  0.0000327 0.0000
 16   -229.1897163566  -0.000000008998 0.00001603  0.00000039  0.0000106 0.0000
 17   -229.1897163578  -0.000000001200 0.00000823  0.00000023  0.0000048 0.0000
                 **** Energy Check signals convergence ****

               *****************************************************
               *                     SUCCESS                       *
               *           SCF CONVERGED AFTER  18 CYCLES          *
               *****************************************************

Old exchange energy                            =    -12.594628377 Eh
New exchange energy                            =    -12.594634301 Eh
Exchange energy change after final integration =     -0.000005924 Eh
Total energy after final integration           =   -229.189722282 Eh
Final COS-X integration done in                =     1.912 sec

----------------
TOTAL SCF ENERGY
----------------

Total Energy       :         -229.18972228 Eh           -6236.56940 eV

Components:
Nuclear Repulsion  :          142.74235921 Eh            3884.21706 eV
Electronic Energy  :         -371.93208150 Eh          -10120.78647 eV
One Electron Energy:         -583.27582898 Eh          -15871.74221 eV
Two Electron Energy:          211.34374749 Eh            5750.95574 eV
Max COSX asymmetry :            0.00000022 Eh               0.00001 eV

Virial components:
Potential Energy   :         -456.75494351 Eh          -12428.93389 eV
Kinetic Energy     :          227.56522123 Eh            6192.36448 eV
Virial Ratio       :            2.00713862


DFT components:
N(Alpha)           :       18.000000104657 electrons
N(Beta)            :       17.000000168800 electrons
N(Total)           :       35.000000273457 electrons
E(X)               :      -16.754831583185 Eh       
E(C)               :       -1.507732590732 Eh       
E(XC)              :      -18.262564173917 Eh       
DFET-embed. en.    :        0.000000000000 Eh       

---------------
SCF CONVERGENCE
---------------

  Last Energy change         ...   -4.1186e-10  Tolerance :   1.0000e-08
  Last MAX-Density change    ...    0.0000e+00  Tolerance :   1.0000e-07
  Last RMS-Density change    ...    0.0000e+00  Tolerance :   5.0000e-09
  Last DIIS Error            ...    2.1665e-06  Tolerance :   5.0000e-07

             **** THE GBW FILE WAS UPDATED (pbeh-3c.gbw) ****
             **** DENSITY pbeh-3c.scfp WAS UPDATED ****
             **** ENERGY FILE WAS UPDATED (pbeh-3c.en.tmp) ****
----------------------
UHF SPIN CONTAMINATION
----------------------

Warning: in a DFT calculation there is little theoretical justification to 
         calculate <S**2> as in Hartree-Fock theory. We will do it anyways
         but you should keep in mind that the values have only limited relevance

Expectation value of <S**2>     :     0.778208
Ideal value S*(S+1) for S=0.5   :     0.750000
Deviation                       :     0.028208

             **** THE GBW FILE WAS UPDATED (pbeh-3c.gbw) ****
             **** DENSITY pbeh-3c.scfp WAS UPDATED ****
----------------
ORBITAL ENERGIES
----------------
                 SPIN UP ORBITALS
  NO   OCC          E(Eh)            E(eV) 
   0   1.0000     -19.859569      -540.4063 
   1   1.0000     -10.861265      -295.5500 
   2   1.0000     -10.738548      -292.2108 
   3   1.0000     -10.718232      -291.6579 
   4   1.0000     -10.705522      -291.3121 
   5   1.0000      -1.533204       -41.7206 
   6   1.0000      -1.186747       -32.2930 
   7   1.0000      -1.076799       -29.3012 
   8   1.0000      -0.938674       -25.5426 
   9   1.0000      -0.859793       -23.3961 
  10   1.0000      -0.830264       -22.5926 
  11   1.0000      -0.805490       -21.9185 
  12   1.0000      -0.792864       -21.5749 
  13   1.0000      -0.759487       -20.6667 
  14   1.0000      -0.704568       -19.1723 
  15   1.0000      -0.667412       -18.1612 
  16   1.0000      -0.635998       -17.3064 
  17   1.0000      -0.520353       -14.1595 
  18   0.0000      -0.252711        -6.8766 
  19   0.0000      -0.247866        -6.7448 
  20   0.0000      -0.112645        -3.0652 
  21   0.0000      -0.065113        -1.7718 
  22   0.0000      -0.038493        -1.0475 
  23   0.0000      -0.016753        -0.4559 
  24   0.0000       0.020192         0.5495 
  25   0.0000       0.058691         1.5971 
  26   0.0000       0.119964         3.2644 
  27   0.0000       0.148890         4.0515 
  28   0.0000       0.186741         5.0815 
  29   0.0000       0.245092         6.6693 
  30   0.0000       0.279018         7.5925 
  31   0.0000       0.297635         8.0991 
  32   0.0000       0.333723         9.0811 
  33   0.0000       0.346742         9.4353 
  34   0.0000       0.370564        10.0836 
  35   0.0000       0.396740        10.7958 
  36   0.0000       0.442775        12.0485 
  37   0.0000       0.444385        12.0923 
  38   0.0000       0.484666        13.1884 
  39   0.0000       0.606844        16.5131 
  40   0.0000       0.698158        18.9978 
  41   0.0000       0.704248        19.1636 
  42   0.0000       0.750389        20.4191 
  43   0.0000       0.775795        21.1105 
  44   0.0000       0.821975        22.3671 
  45   0.0000       0.841490        22.8981 
  46   0.0000       0.851176        23.1617 
  47   0.0000       0.852687        23.2028 
  48   0.0000       0.910148        24.7664 
  49   0.0000       0.937672        25.5153 
  50   0.0000       0.976687        26.5770 
  51   0.0000       1.081398        29.4263 
  52   0.0000       1.096173        29.8284 
  53   0.0000       1.187282        32.3076 
  54   0.0000       1.269325        34.5401 
  55   0.0000       1.287754        35.0416 
  56   0.0000       1.298778        35.3416 
  57   0.0000       1.427197        38.8360 
  58   0.0000       1.483532        40.3689 
  59   0.0000       1.655652        45.0526 
  60   0.0000       1.695391        46.1339 
  61   0.0000       1.740884        47.3719 
  62   0.0000       1.749446        47.6048 
  63   0.0000       1.782788        48.5121 
  64   0.0000       1.797324        48.9077 
  65   0.0000       1.822148        49.5832 
  66   0.0000       1.976587        53.7857 
  67   0.0000       1.998478        54.3813 
  68   0.0000       2.036370        55.4124 
  69   0.0000       2.112923        57.4956 
  70   0.0000       2.231901        60.7331 
  71   0.0000       2.366454        64.3945 
  72   0.0000       2.517150        68.4951 
  73   0.0000       2.541448        69.1563 
  74   0.0000       2.679101        72.9020 
  75   0.0000       2.715868        73.9025 
  76   0.0000       2.945092        80.1400 
  77   0.0000       3.138963        85.4155 
  78   0.0000      13.023441       354.3859 
  79   0.0000      13.385641       364.2418 
  80   0.0000      13.774057       374.8112 
  81   0.0000      14.101500       383.7213 
  82   0.0000      25.427971       691.9303 

                 SPIN DOWN ORBITALS
  NO   OCC          E(Eh)            E(eV) 
   0   1.0000     -19.855036      -540.2830 
   1   1.0000     -10.860772      -295.5366 
   2   1.0000     -10.732669      -292.0508 
   3   1.0000     -10.719944      -291.7045 
   4   1.0000     -10.695730      -291.0456 
   5   1.0000      -1.525346       -41.5068 
   6   1.0000      -1.172068       -31.8936 
   7   1.0000      -1.051178       -28.6040 
   8   1.0000      -0.928415       -25.2635 
   9   1.0000      -0.852573       -23.1997 
  10   1.0000      -0.825543       -22.4642 
  11   1.0000      -0.785716       -21.3804 
  12   1.0000      -0.778216       -21.1763 
  13   1.0000      -0.755093       -20.5471 
  14   1.0000      -0.698529       -19.0079 
  15   1.0000      -0.663453       -18.0535 
  16   1.0000      -0.591068       -16.0838 
  17   0.0000      -0.350788        -9.5454 
  18   0.0000      -0.250184        -6.8079 
  19   0.0000      -0.205672        -5.5966 
  20   0.0000      -0.076404        -2.0790 
  21   0.0000      -0.058083        -1.5805 
  22   0.0000      -0.036469        -0.9924 
  23   0.0000      -0.006493        -0.1767 
  24   0.0000       0.023535         0.6404 
  25   0.0000       0.062356         1.6968 
  26   0.0000       0.122711         3.3391 
  27   0.0000       0.152940         4.1617 
  28   0.0000       0.190291         5.1781 
  29   0.0000       0.261221         7.1082 
  30   0.0000       0.282362         7.6835 
  31   0.0000       0.301588         8.2066 
  32   0.0000       0.353932         9.6310 
  33   0.0000       0.354198         9.6382 
  34   0.0000       0.400638        10.9019 
  35   0.0000       0.400702        10.9037 
  36   0.0000       0.458019        12.4633 
  37   0.0000       0.461345        12.5538 
  38   0.0000       0.490545        13.3484 
  39   0.0000       0.609331        16.5807 
  40   0.0000       0.701124        19.0786 
  41   0.0000       0.711606        19.3638 
  42   0.0000       0.753454        20.5025 
  43   0.0000       0.778543        21.1852 
  44   0.0000       0.826349        22.4861 
  45   0.0000       0.853977        23.2379 
  46   0.0000       0.863020        23.4840 
  47   0.0000       0.866226        23.5712 
  48   0.0000       0.915466        24.9111 
  49   0.0000       0.940042        25.5798 
  50   0.0000       0.981085        26.6967 
  51   0.0000       1.089313        29.6417 
  52   0.0000       1.113545        30.3011 
  53   0.0000       1.199350        32.6360 
  54   0.0000       1.290073        35.1047 
  55   0.0000       1.292588        35.1731 
  56   0.0000       1.307540        35.5800 
  57   0.0000       1.428789        38.8793 
  58   0.0000       1.521861        41.4120 
  59   0.0000       1.663715        45.2720 
  60   0.0000       1.709488        46.5175 
  61   0.0000       1.750773        47.6409 
  62   0.0000       1.752768        47.6952 
  63   0.0000       1.798377        48.9363 
  64   0.0000       1.809099        49.2281 
  65   0.0000       1.828243        49.7490 
  66   0.0000       1.998815        54.3905 
  67   0.0000       2.014428        54.8154 
  68   0.0000       2.042075        55.5677 
  69   0.0000       2.127512        57.8925 
  70   0.0000       2.246728        61.1366 
  71   0.0000       2.377644        64.6990 
  72   0.0000       2.519831        68.5681 
  73   0.0000       2.545163        69.2574 
  74   0.0000       2.690417        73.2100 
  75   0.0000       2.719396        73.9985 
  76   0.0000       2.947596        80.2082 
  77   0.0000       3.142604        85.5146 
  78   0.0000      13.028460       354.5224 
  79   0.0000      13.394631       364.4864 
  80   0.0000      13.777329       374.9002 
  81   0.0000      14.105723       383.8362 
  82   0.0000      25.433780       692.0883 

                    ********************************
                    * MULLIKEN POPULATION ANALYSIS *
                    ********************************

--------------------------------------------
MULLIKEN ATOMIC CHARGES AND SPIN POPULATIONS
--------------------------------------------
   0 O :   -0.023157    0.131987
   1 C :    0.503180    0.040873
   2 C :   -0.349564    0.369636
   3 H :    0.394340   -0.021797
   4 C :   -0.094626   -0.110518
   5 H :    0.344052    0.004376
   6 C :   -0.403515    0.655039
   7 H :    0.294097   -0.034028
   8 H :    0.335193   -0.035568
Sum of atomic charges         :    1.0000000
Sum of atomic spin populations:    1.0000000

-----------------------------------------------------
MULLIKEN REDUCED ORBITAL CHARGES AND SPIN POPULATIONS
-----------------------------------------------------
CHARGE
  0 O s       :     3.766842  s :     3.766842
      pz      :     1.472430  p :     4.213829
      px      :     1.371565
      py      :     1.369834
      dz2     :     0.002769  d :     0.042485
      dxz     :     0.001243
      dyz     :     0.014137
      dx2y2   :     0.010504
      dxy     :     0.013832
  1 C s       :     3.092778  s :     3.092778
      pz      :     0.772878  p :     2.314583
      px      :     0.655583
      py      :     0.886122
      dz2     :     0.006462  d :     0.089459
      dxz     :     0.003048
      dyz     :     0.033795
      dx2y2   :     0.021208
      dxy     :     0.024945
  2 C s       :     3.266532  s :     3.266532
      pz      :     1.076921  p :     3.045399
      px      :     1.181580
      py      :     0.786898
      dz2     :     0.004540  d :     0.037633
      dxz     :     0.003041
      dyz     :     0.004845
      dx2y2   :     0.016358
      dxy     :     0.008849
  3 H s       :     0.605660  s :     0.605660
  4 C s       :     3.254475  s :     3.254475
      pz      :     0.854406  p :     2.798220
      px      :     0.900919
      py      :     1.042895
      dz2     :     0.003909  d :     0.041931
      dxz     :     0.006545
      dyz     :     0.003745
      dx2y2   :     0.011653
      dxy     :     0.016079
  5 H s       :     0.655948  s :     0.655948
  6 C s       :     3.419217  s :     3.419217
      pz      :     0.748220  p :     2.952526
      px      :     0.956688
      py      :     1.247617
      dz2     :     0.004435  d :     0.031772
      dxz     :     0.004725
      dyz     :     0.000019
      dx2y2   :     0.009542
      dxy     :     0.013051
  7 H s       :     0.705903  s :     0.705903
  8 H s       :     0.664807  s :     0.664807

SPIN
  0 O s       :     0.004087  s :     0.004087
      pz      :     0.119629  p :     0.129074
      px      :     0.008411
      py      :     0.001034
      dz2     :     0.000057  d :    -0.001174
      dxz     :    -0.000080
      dyz     :    -0.000964
      dx2y2   :    -0.000071
      dxy     :    -0.000116
  1 C s       :    -0.009801  s :    -0.009801
      pz      :     0.057759  p :     0.041458
      px      :    -0.009202
      py      :    -0.007100
      dz2     :    -0.000169  d :     0.009217
      dxz     :     0.001058
      dyz     :     0.008172
      dx2y2   :     0.000098
      dxy     :     0.000058
  2 C s       :     0.034911  s :     0.034911
      pz      :     0.310991  p :     0.334508
      px      :     0.014053
      py      :     0.009464
      dz2     :    -0.001103  d :     0.000216
      dxz     :    -0.000559
      dyz     :     0.002007
      dx2y2   :     0.000011
      dxy     :    -0.000140
  3 H s       :    -0.021797  s :    -0.021797
  4 C s       :    -0.016005  s :    -0.016005
      pz      :    -0.060832  p :    -0.101604
      px      :    -0.023999
      py      :    -0.016772
      dz2     :     0.000102  d :     0.007091
      dxz     :     0.006384
      dyz     :     0.000296
      dx2y2   :     0.000309
      dxy     :     0.000001
  5 H s       :     0.004376  s :     0.004376
  6 C s       :     0.055557  s :     0.055557
      pz      :     0.555490  p :     0.601052
      px      :     0.012604
      py      :     0.032959
      dz2     :    -0.002074  d :    -0.001570
      dxz     :     0.000629
      dyz     :     0.000022
      dx2y2   :     0.000030
      dxy     :    -0.000178
  7 H s       :    -0.034028  s :    -0.034028
  8 H s       :    -0.035568  s :    -0.035568


                     *******************************
                     * LOEWDIN POPULATION ANALYSIS *
                     *******************************

-------------------------------------------
LOEWDIN ATOMIC CHARGES AND SPIN POPULATIONS
-------------------------------------------
   0 O :    0.157248    0.127370
   1 C :    0.348650    0.069921
   2 C :   -0.176650    0.309247
   3 H :    0.231455   -0.011360
   4 C :   -0.046489   -0.046354
   5 H :    0.194319    0.001769
   6 C :   -0.068171    0.583698
   7 H :    0.167868   -0.016867
   8 H :    0.191771   -0.017423

----------------------------------------------------
LOEWDIN REDUCED ORBITAL CHARGES AND SPIN POPULATIONS
----------------------------------------------------
CHARGE
  0 O s       :     3.487354  s :     3.487354
      pz      :     1.441004  p :     4.284410
      px      :     1.355117
      py      :     1.488289
      dz2     :     0.007663  d :     0.070988
      dxz     :     0.001739
      dyz     :     0.019438
      dx2y2   :     0.021724
      dxy     :     0.020425
  1 C s       :     2.902066  s :     2.902066
      pz      :     0.779092  p :     2.559786
      px      :     0.703237
      py      :     1.077456
      dz2     :     0.014768  d :     0.189498
      dxz     :     0.006274
      dyz     :     0.068049
      dx2y2   :     0.047901
      dxy     :     0.052506
  2 C s       :     2.902927  s :     2.902927
      pz      :     1.042558  p :     3.187578
      px      :     1.124103
      py      :     1.020917
      dz2     :     0.008103  d :     0.086146
      dxz     :     0.004295
      dyz     :     0.009257
      dx2y2   :     0.040198
      dxy     :     0.024293
  3 H s       :     0.768545  s :     0.768545
  4 C s       :     2.905837  s :     2.905837
      pz      :     0.849182  p :     3.046704
      px      :     1.103054
      py      :     1.094469
      dz2     :     0.006540  d :     0.093948
      dxz     :     0.013060
      dyz     :     0.006372
      dx2y2   :     0.029503
      dxy     :     0.038473
  5 H s       :     0.805681  s :     0.805681
  6 C s       :     2.998310  s :     2.998310
      pz      :     0.752091  p :     3.008314
      px      :     1.098399
      py      :     1.157824
      dz2     :     0.005675  d :     0.061547
      dxz     :     0.007553
      dyz     :     0.000036
      dx2y2   :     0.021392
      dxy     :     0.026890
  7 H s       :     0.832132  s :     0.832132
  8 H s       :     0.808229  s :     0.808229

SPIN
  0 O s       :     0.002342  s :     0.002342
      pz      :     0.116639  p :     0.124806
      px      :     0.007504
      py      :     0.000664
      dz2     :     0.000080  d :     0.000222
      dxz     :     0.000061
      dyz     :     0.000447
      dx2y2   :    -0.000137
      dxy     :    -0.000229
  1 C s       :    -0.002923  s :    -0.002923
      pz      :     0.060227  p :     0.050843
      px      :    -0.006210
      py      :    -0.003174
      dz2     :    -0.000039  d :     0.022000
      dxz     :     0.002240
      dyz     :     0.018859
      dx2y2   :     0.000452
      dxy     :     0.000487
  2 C s       :     0.011401  s :     0.011401
      pz      :     0.287277  p :     0.298047
      px      :     0.006823
      py      :     0.003947
      dz2     :    -0.001137  d :    -0.000201
      dxz     :    -0.000615
      dyz     :     0.002416
      dx2y2   :    -0.000365
      dxy     :    -0.000501
  3 H s       :    -0.011360  s :    -0.011360
  4 C s       :    -0.006034  s :    -0.006034
      pz      :    -0.041628  p :    -0.056459
      px      :    -0.010207
      py      :    -0.004624
      dz2     :     0.000242  d :     0.016140
      dxz     :     0.012670
      dyz     :     0.001764
      dx2y2   :     0.000908
      dxy     :     0.000556
  5 H s       :     0.001769  s :     0.001769
  6 C s       :     0.022745  s :     0.022745
      pz      :     0.539920  p :     0.564260
      px      :     0.010192
      py      :     0.014148
      dz2     :    -0.001948  d :    -0.003307
      dxz     :    -0.000309
      dyz     :     0.000033
      dx2y2   :    -0.000450
      dxy     :    -0.000632
  7 H s       :    -0.016867  s :    -0.016867
  8 H s       :    -0.017423  s :    -0.017423


                      *****************************
                      * MAYER POPULATION ANALYSIS *
                      *****************************

  NA   - Mulliken gross atomic population
  ZA   - Total nuclear charge
  QA   - Mulliken gross atomic charge
  VA   - Mayer's total valence
  BVA  - Mayer's bonded valence
  FA   - Mayer's free valence

  ATOM       NA         ZA         QA         VA         BVA        FA
  0 O      8.0232     8.0000    -0.0232     2.6601     2.6448     0.0153
  1 C      5.4968     6.0000     0.5032     3.8408     3.8345     0.0063
  2 C      6.3496     6.0000    -0.3496     3.6603     3.5576     0.1027
  3 H      0.6057     1.0000     0.3943     0.8247     0.8242     0.0005
  4 C      6.0946     6.0000    -0.0946     3.6617     3.6548     0.0069
  5 H      0.6559     1.0000     0.3441     0.8562     0.8561     0.0000
  6 C      6.4035     6.0000    -0.4035     3.6008     3.2875     0.3132
  7 H      0.7059     1.0000     0.2941     0.8899     0.8887     0.0011
  8 H      0.6648     1.0000     0.3352     0.8750     0.8738     0.0012

  Mayer bond orders larger than 0.100000
B(  0-O ,  1-C ) :   2.5105 B(  1-C ,  2-C ) :   1.2743 B(  2-C ,  3-H ) :   0.8140 
B(  2-C ,  4-C ) :   1.3690 B(  4-C ,  5-H ) :   0.8649 B(  4-C ,  6-C ) :   1.3993 
B(  6-C ,  7-H ) :   0.9007 B(  6-C ,  8-H ) :   0.8830 

-------
TIMINGS
-------

Total SCF time: 0 days 0 hours 2 min 46 sec 

Total time                  ....     166.841 sec
Sum of individual times     ....     151.924 sec  ( 91.1%)

Fock matrix formation       ....     128.121 sec  ( 76.8%)
  Split-RI-J                ....      12.194 sec  (  9.5% of F)
  Chain of spheres X        ....      17.531 sec  ( 13.7% of F)
  XC integration            ....      44.894 sec  ( 35.0% of F)
    Basis function eval.    ....       2.218 sec  (  4.9% of XC)
    Density eval.           ....       2.154 sec  (  4.8% of XC)
    XC-Functional eval.     ....       1.774 sec  (  4.0% of XC)
    XC-Potential eval.      ....       1.492 sec  (  3.3% of XC)
Diagonalization             ....       3.051 sec  (  1.8%)
Density matrix formation    ....       0.033 sec  (  0.0%)
Population analysis         ....       1.597 sec  (  1.0%)
Initial guess               ....       0.144 sec  (  0.1%)
Orbital Transformation      ....       0.000 sec  (  0.0%)
Orbital Orthonormalization  ....       0.000 sec  (  0.0%)
DIIS solution               ....      10.526 sec  (  6.3%)
Grid generation             ....       8.452 sec  (  5.1%)

Maximum memory used throughout the entire SCF-calculation: 48.6 MB


-------------------------------------------------------------------------------
                          DFT DISPERSION CORRECTION                            
                                                                               
                              DFTD3 V3.1  Rev 1                                
                          USING Becke-Johnson damping                          
-------------------------------------------------------------------------------
The PBEh-3c composite method is recognized
Using three-body term ABC
Active option DFTDOPT                   ...         4   

molecular C6(AA) [au] = 967.833142 


            DFT-D V3
 parameters
 s6 scaling factor         :     1.0000 
 a1 scaling factor         :     0.4860 
 s8 scaling factor         :     0.0000 
 a2 scaling factor         :     4.5000 
 Damping factor alpha9(ATM):    16.0000 
 ad hoc parameters k1-k3   :    16.0000     1.3333    -4.0000 

 Edisp/kcal,au: -2.153230077244  -0.003431390181 
 E6   /kcal   :  -2.155739381 
 E8   /kcal   :  -0.000000000 
 E6(ABC)      :   0.002509303 
 % E8         :   0.000000000 
 % E6(ABC)    :  -0.116536704 

-------------------------   ----------------
Dispersion correction           -0.003431390
-------------------------   ----------------

------------------   -----------------
gCP correction             0.009129106
------------------   -----------------

-------------------------   --------------------
FINAL SINGLE POINT ENERGY      -229.184024566312
-------------------------   --------------------


                            ***************************************
                            *     ORCA property calculations      *
                            ***************************************

                                    ---------------------
                                    Active property flags
                                    ---------------------
   (+) Dipole Moment


------------------------------------------------------------------------------
                       ORCA ELECTRIC PROPERTIES CALCULATION
------------------------------------------------------------------------------

Dipole Moment Calculation                       ... on
Quadrupole Moment Calculation                   ... off
Polarizability Calculation                      ... off
GBWName                                         ... pbeh-3c.gbw
Electron density                                ... pbeh-3c.scfp
The origin for moment calculation is the CENTER OF MASS  = (-0.304900,  1.202936  0.000000)

-------------
DIPOLE MOMENT
-------------
                                X             Y             Z
Electronic contribution:     -1.53497       4.24799      -0.00000
Nuclear contribution   :      1.43557      -5.15462       0.00000
                        -----------------------------------------
Total Dipole Moment    :     -0.09940      -0.90663      -0.00000
                        -----------------------------------------
Magnitude (a.u.)       :      0.91206
Magnitude (Debye)      :      2.31828



--------------------
Rotational spectrum 
--------------------
 
Rotational constants in cm-1:     0.454563     0.116739     0.092885 
Rotational constants in MHz : 13627.460929  3499.740753  2784.610192 

 Dipole components along the rotational axes: 
x,y,z [a.u.] :     0.830882     0.376154    -0.000000 
x,y,z [Debye]:     2.111935     0.956108    -0.000000 

 

Timings for individual modules:

Sum of individual times         ...      173.445 sec (=   2.891 min)
GTO integral calculation        ...        5.237 sec (=   0.087 min)   3.0 %
SCF iterations                  ...      168.208 sec (=   2.803 min)  97.0 %
                             ****ORCA TERMINATED NORMALLY****
TOTAL RUN TIME: 0 days 0 hours 3 minutes 5 seconds 502 msec
