
                                 *****************
                                 * O   R   C   A *
                                 *****************

                                            #,                                       
                                            ###                                      
                                            ####                                     
                                            #####                                    
                                            ######                                   
                                           ########,                                 
                                     ,,################,,,,,                         
                               ,,#################################,,                 
                          ,,##########################################,,             
                       ,#########################################, ''#####,          
                    ,#############################################,,   '####,        
                  ,##################################################,,,,####,       
                ,###########''''           ''''###############################       
              ,#####''   ,,,,##########,,,,          '''####'''          '####       
            ,##' ,,,,###########################,,,                        '##       
           ' ,,###''''                  '''############,,,                           
         ,,##''                                '''############,,,,        ,,,,,,###''
      ,#''                                            '''#######################'''  
     '                                                          ''''####''''         
             ,#######,   #######,   ,#######,      ##                                
            ,#'     '#,  ##    ##  ,#'     '#,    #''#        ######   ,####,        
            ##       ##  ##   ,#'  ##            #'  '#       #        #'  '#        
            ##       ##  #######   ##           ,######,      #####,   #    #        
            '#,     ,#'  ##    ##  '#,     ,#' ,#      #,         ##   #,  ,#        
             '#######'   ##     ##  '#######'  #'      '#     #####' # '####'        



                  #######################################################
                  #                        -***-                        #
                  #          Department of theory and spectroscopy      #
                  #    Directorship and core code : Frank Neese         #
                  #        Max Planck Institute fuer Kohlenforschung    #
                  #                Kaiser Wilhelm Platz 1               #
                  #                 D-45470 Muelheim/Ruhr               #
                  #                      Germany                        #
                  #                                                     #
                  #                  All rights reserved                #
                  #                        -***-                        #
                  #######################################################


                         Program Version 5.0.3 -  RELEASE  -


 With contributions from (in alphabetic order):
   Daniel Aravena         : Magnetic Suceptibility
   Michael Atanasov       : Ab Initio Ligand Field Theory (pilot matlab implementation)
   Alexander A. Auer      : GIAO ZORA, VPT2 properties, NMR spectrum
   Ute Becker             : Parallelization
   Giovanni Bistoni       : ED, misc. LED, open-shell LED, HFLD
   Martin Brehm           : Molecular dynamics
   Dmytro Bykov           : SCF Hessian
   Vijay G. Chilkuri      : MRCI spin determinant printing, contributions to CSF-ICE
   Dipayan Datta          : RHF DLPNO-CCSD density
   Achintya Kumar Dutta   : EOM-CC, STEOM-CC
   Dmitry Ganyushin       : Spin-Orbit,Spin-Spin,Magnetic field MRCI
   Miquel Garcia          : C-PCM and meta-GGA Hessian, CC/C-PCM, Gaussian charge scheme
   Yang Guo               : DLPNO-NEVPT2, F12-NEVPT2, CIM, IAO-localization
   Andreas Hansen         : Spin unrestricted coupled pair/coupled cluster methods
   Benjamin Helmich-Paris : MC-RPA, TRAH-SCF, COSX integrals
   Lee Huntington         : MR-EOM, pCC
   Robert Izsak           : Overlap fitted RIJCOSX, COSX-SCS-MP3, EOM
   Marcus Kettner         : VPT2
   Christian Kollmar      : KDIIS, OOCD, Brueckner-CCSD(T), CCSD density, CASPT2, CASPT2-K
   Simone Kossmann        : Meta GGA functionals, TD-DFT gradient, OOMP2, MP2 Hessian
   Martin Krupicka        : Initial AUTO-CI
   Lucas Lang             : DCDCAS
   Marvin Lechner         : AUTO-CI (C++ implementation), FIC-MRCC
   Dagmar Lenk            : GEPOL surface, SMD
   Dimitrios Liakos       : Extrapolation schemes; Compound Job, initial MDCI parallelization
   Dimitrios Manganas     : Further ROCIS development; embedding schemes
   Dimitrios Pantazis     : SARC Basis sets
   Anastasios Papadopoulos: AUTO-CI, single reference methods and gradients
   Taras Petrenko         : DFT Hessian,TD-DFT gradient, ASA, ECA, R-Raman, ABS, FL, XAS/XES, NRVS
   Peter Pinski           : DLPNO-MP2, DLPNO-MP2 Gradient
   Christoph Reimann      : Effective Core Potentials
   Marius Retegan         : Local ZFS, SOC
   Christoph Riplinger    : Optimizer, TS searches, QM/MM, DLPNO-CCSD(T), (RO)-DLPNO pert. Triples
   Tobias Risthaus        : Range-separated hybrids, TD-DFT gradient, RPA, STAB
   Michael Roemelt        : Original ROCIS implementation
   Masaaki Saitow         : Open-shell DLPNO-CCSD energy and density
   Barbara Sandhoefer     : DKH picture change effects
   Avijit Sen             : IP-ROCIS
   Kantharuban Sivalingam : CASSCF convergence, NEVPT2, FIC-MRCI
   Bernardo de Souza      : ESD, SOC TD-DFT
   Georgi Stoychev        : AutoAux, RI-MP2 NMR, DLPNO-MP2 response
   Willem Van den Heuvel  : Paramagnetic NMR
   Boris Wezisla          : Elementary symmetry handling
   Frank Wennmohs         : Technical directorship


 We gratefully acknowledge several colleagues who have allowed us to
 interface, adapt or use parts of their codes:
   Stefan Grimme, W. Hujo, H. Kruse, P. Pracht,  : VdW corrections, initial TS optimization,
                  C. Bannwarth, S. Ehlert          DFT functionals, gCP, sTDA/sTD-DF
   Ed Valeev, F. Pavosevic, A. Kumar             : LibInt (2-el integral package), F12 methods
   Garnet Chan, S. Sharma, J. Yang, R. Olivares  : DMRG
   Ulf Ekstrom                                   : XCFun DFT Library
   Mihaly Kallay                                 : mrcc  (arbitrary order and MRCC methods)
   Jiri Pittner, Ondrej Demel                    : Mk-CCSD
   Frank Weinhold                                : gennbo (NPA and NBO analysis)
   Christopher J. Cramer and Donald G. Truhlar   : smd solvation model
   Lars Goerigk                                  : TD-DFT with DH, B97 family of functionals
   V. Asgeirsson, H. Jonsson                     : NEB implementation
   FAccTs GmbH                                   : IRC, NEB, NEB-TS, DLPNO-Multilevel, CI-OPT
                                                   MM, QMMM, 2- and 3-layer-ONIOM, Crystal-QMMM,
                                                   LR-CPCM, SF, NACMEs, symmetry and pop. for TD-DFT,
                                                   nearIR, NL-DFT gradient (VV10), updates on ESD,
                                                   ML-optimized integration grids
   S Lehtola, MJT Oliveira, MAL Marques          : LibXC Library
   Liviu Ungur et al                             : ANISO software


 Your calculation uses the libint2 library for the computation of 2-el integrals
 For citations please refer to: http://libint.valeyev.net

 Your ORCA version has been built with support for libXC version: 5.1.0
 For citations please refer to: https://tddft.org/programs/libxc/

 This ORCA versions uses:
   CBLAS   interface :  Fast vector & matrix operations
   LAPACKE interface :  Fast linear algebra routines
   SCALAPACK package :  Parallel linear algebra routines
   Shared memory     :  Shared parallel matrices
   BLAS/LAPACK       :  OpenBLAS 0.3.15  USE64BITINT DYNAMIC_ARCH NO_AFFINITY Haswell SINGLE_THREADED
        Core in use  :  Haswell
   Copyright (c) 2011-2014, The OpenBLAS Project




***************************************
The coordinates will be read from file: i12e.xyz
***************************************


Your calculation utilizes the geometrical counterpoise correction gCP
Please cite in your paper:
H.Kruse, S. Grimme J.Chem.Phys., 136, (2012), 154101 
   

Your calculation utilizes the atom-pairwise dispersion correction
with the Becke-Johnson damping scheme (D3BJ)
Cite in your paper:
S.Grimme, S.Ehrlich, L.Goerigk, J Comput Chem, (2011), 32, 1456–1465 
S.Grimme, J.Antony, S.Ehrlich and H.Krieg, J.Chem.Phys., 132, (2010), 154104 
   

Your calculation employs the composite approach PBEh-3c.
Please cite in your paper:
S. Grimme, J. G. Brandenburg, C. Bannwarth, A. Hansen J.Chem.Phys., 143, (2015), 054107 
   

================================================================================

----- Orbital basis set information -----
Your calculation utilizes the basis: def2-mSVP

----- AuxJ basis set information -----
Your calculation utilizes the auxiliary basis: def2/J
   F. Weigend, Phys. Chem. Chem. Phys. 8, 1057 (2006).

================================================================================
                                        WARNINGS
                       Please study these warnings very carefully!
================================================================================


INFO   : the flag for use of the SHARK integral package has been found!

================================================================================
                                       INPUT FILE
================================================================================
NAME = pbeh-3c.inp
|  1> ! PBEh-3c def2/J TightSCF DefGrid3
|  2> 
|  3> %maxcore 60000
|  4> 
|  5> %pal
|  6> nprocs 4
|  7> end
|  8> 
|  9> *xyzfile 0 1 i12e.xyz
| 10> 
| 11>                          ****END OF INPUT****
================================================================================

                       ****************************
                       * Single Point Calculation *
                       ****************************

---------------------------------
CARTESIAN COORDINATES (ANGSTROEM)
---------------------------------
  C     -2.541728    0.490416    0.937658
  C     -1.580960    0.248959   -0.048111
  C     -1.929384   -0.539295   -1.157836
  C     -3.205139   -1.079671   -1.271807
  C     -4.166262   -0.839788   -0.274167
  C     -3.828408   -0.049504    0.835825
  C     -0.205428    0.893411    0.025425
  N      0.823047    0.054227   -0.546964
  C      1.744353   -0.121802    0.335537
  C      1.370326    0.547656    1.650504
  O      0.156712    1.131943    1.423355
  C     -0.216175    2.285570   -0.686500
  C      2.983702   -0.867532    0.087924
  C      3.316076   -1.228725   -1.235224
  C      4.484130   -1.938574   -1.497936
  C      5.339554   -2.299902   -0.447299
  C      5.019186   -1.942932    0.865687
  C      3.850317   -1.227717    1.138302
  O      1.939974    0.595569    2.711991
  C      1.132154    2.934810   -0.749970
  C      1.705992    3.701274    0.173989
  O     -5.389942   -1.417160   -0.474050
  C     -6.397602   -1.203217    0.519979
  F      1.814922    2.632760   -1.895803
  H     -0.607027    2.133200   -1.697809
  H     -1.187185   -0.735319   -1.926682
  H     -3.477253   -1.696834   -2.124538
  H     -4.549835    0.148437    1.622349
  H     -2.286608    1.093351    1.804763
  H      3.605935   -0.946432    2.156969
  H      5.681478   -2.220044    1.683247
  H      6.253274   -2.853743   -0.654857
  H      4.734104   -2.208409   -2.522056
  H      2.649448   -0.936043   -2.041836
  H     -7.279375   -1.746174    0.169360
  H     -6.633511   -0.132754    0.620406
  H     -6.079774   -1.597895    1.497038
  H      1.166124    3.924182    1.088515
  H      2.707721    4.097481    0.034842
  H     -0.916935    2.916218   -0.130219

----------------------------
CARTESIAN COORDINATES (A.U.)
----------------------------
  NO LB      ZA    FRAG     MASS         X           Y           Z
   0 C     6.0000    0    12.011   -4.803169    0.926752    1.771916
   1 C     6.0000    0    12.011   -2.987581    0.470465   -0.090916
   2 C     6.0000    0    12.011   -3.646008   -1.019119   -2.187992
   3 C     6.0000    0    12.011   -6.056836   -2.040283   -2.403367
   4 C     6.0000    0    12.011   -7.873095   -1.586970   -0.518101
   5 C     6.0000    0    12.011   -7.234643   -0.093550    1.579480
   6 C     6.0000    0    12.011   -0.388202    1.688302    0.048046
   7 N     7.0000    0    14.007    1.555332    0.102475   -1.033612
   8 C     6.0000    0    12.011    3.296349   -0.230172    0.634074
   9 C     6.0000    0    12.011    2.589541    1.034920    3.119001
  10 O     8.0000    0    15.999    0.296142    2.139062    2.689751
  11 C     6.0000    0    12.011   -0.408512    4.319101   -1.297298
  12 C     6.0000    0    12.011    5.638380   -1.639397    0.166152
  13 C     6.0000    0    12.011    6.266476   -2.321954   -2.334235
  14 C     6.0000    0    12.011    8.473778   -3.663373   -2.830689
  15 C     6.0000    0    12.011   10.090295   -4.346184   -0.845273
  16 C     6.0000    0    12.011    9.484887   -3.671609    1.635912
  17 C     6.0000    0    12.011    7.276045   -2.320049    2.151079
  18 O     8.0000    0    15.999    3.666021    1.125462    5.124920
  19 C     6.0000    0    12.011    2.139460    5.545987   -1.417238
  20 C     6.0000    0    12.011    3.223858    6.994393    0.328792
  21 O     8.0000    0    15.999  -10.185514   -2.678044   -0.895825
  22 C     6.0000    0    12.011  -12.089716   -2.273751    0.982617
  23 F     9.0000    0    18.998    3.429706    4.975196   -3.582548
  24 H     1.0000    0     1.008   -1.147115    4.031164   -3.208395
  25 H     1.0000    0     1.008   -2.243454   -1.389552   -3.640901
  26 H     1.0000    0     1.008   -6.571056   -3.206551   -4.014796
  27 H     1.0000    0     1.008   -8.597941    0.280506    3.065796
  28 H     1.0000    0     1.008   -4.321063    2.066134    3.410507
  29 H     1.0000    0     1.008    6.814230   -1.788497    4.076081
  30 H     1.0000    0     1.008   10.736438   -4.195276    3.180876
  31 H     1.0000    0     1.008   11.816976   -5.392793   -1.237500
  32 H     1.0000    0     1.008    8.946160   -4.173289   -4.765994
  33 H     1.0000    0     1.008    5.006731   -1.768864   -3.858511
  34 H     1.0000    0     1.008  -13.756025   -3.299791    0.320044
  35 H     1.0000    0     1.008  -12.535519   -0.250868    1.172398
  36 H     1.0000    0     1.008  -11.489108   -3.019584    2.828991
  37 H     1.0000    0     1.008    2.203656    7.415630    2.056995
  38 H     1.0000    0     1.008    5.116851    7.743117    0.065842
  39 H     1.0000    0     1.008   -1.732756    5.510854   -0.246078

--------------------------------
INTERNAL COORDINATES (ANGSTROEM)
--------------------------------
 C      0   0   0     0.000000000000     0.00000000     0.00000000
 C      1   0   0     1.397539045479     0.00000000     0.00000000
 C      2   1   0     1.405074377868   118.91699182     0.00000000
 C      3   2   1     1.390160765422   120.68985374   359.54342884
 C      4   3   2     1.405911162861   120.18997531     0.13153916
 C      1   2   3     1.399082133146   120.94568924     0.56625324
 C      2   1   3     1.520793389789   120.96306335   176.25732512
 N      7   2   1     1.445550866852   112.23254753   148.12494312
 C      8   7   2     1.287866684399   108.48079279   235.09828703
 C      9   8   7     1.522237371245   110.85807061     3.02684968
 O     10   9   8     1.365960650523   105.23461192   359.33689597
 C      7   2   1     1.563668929127   110.42913767   271.21103058
 C      9   8   7     1.467450941732   123.91823107   183.17854793
 C     13   9   8     1.411259484914   119.15485759    11.22283912
 C     14  13   9     1.391851831739   120.34072374   180.13366127
 C     15  14  13     1.402193614829   120.12997330     0.00000000
 C     16  15  14     1.397854368651   119.87878049   359.83676386
 C     17  16  15     1.397177044837   120.37989185     0.00000000
 O     10   9   8     1.205631988204   131.44801410   178.52735030
 C     12   7   2     1.497842378323   113.51648753   184.56050048
 C     20  12   7     1.330585550428   127.47944806   273.86559016
 O      5   4   3     1.367736254360   115.84241408   180.18947263
 C     22   5   4     1.431517740889   117.72338502   179.76451396
 F     20  12   7     1.367603704412   112.90354704    91.77114489
 H     12   7   2     1.094864203679   107.40330826   306.42271696
 H      3   2   1     1.086466949208   119.38822529   180.25417421
 H      4   3   2     1.087237909690   120.97304566   180.49509593
 H      6   1   2     1.085476031615   119.21644953   179.43392961
 H      1   2   3     1.086502599778   119.82682569   179.66117616
 H     18  17  16     1.084678555676   120.29686113   180.35530499
 H     17  16  15     1.088037978543   120.08211927   180.10981687
 H     16  15  14     1.088441520741   120.02455787   180.08915538
 H     15  14  13     1.088172229535   119.79432826   180.28762094
 H     14  13   9     1.086590793216   118.85248654     0.62796561
 H     23  22   5     1.093279262067   105.71286910   180.17764876
 H     23  22   5     1.100741264926   111.07286273    61.08527850
 H     23  22   5     1.100649587766   111.07322560   299.27984893
 H     21  20  12     1.085128327546   119.27457899   358.79296791
 H     21  20  12     1.086187010141   121.25826313   178.06236492
 H     12   7   2     1.094637262428   106.61622419    62.82378265

---------------------------
INTERNAL COORDINATES (A.U.)
---------------------------
 C      0   0   0     0.000000000000     0.00000000     0.00000000
 C      1   0   0     2.640966057417     0.00000000     0.00000000
 C      2   1   0     2.655205771960   118.91699182     0.00000000
 C      3   2   1     2.627023128771   120.68985374   359.54342884
 C      4   3   2     2.656787066430   120.18997531     0.13153916
 C      1   2   3     2.643882070509   120.94568924     0.56625324
 C      2   1   3     2.873883012980   120.96306335   176.25732512
 N      7   2   1     2.731695251003   112.23254753   148.12494312
 C      8   7   2     2.433715330516   108.48079279   235.09828703
 C      9   8   7     2.876611742474   110.85807061     3.02684968
 O     10   9   8     2.581291539201   105.23461192   359.33689597
 C      7   2   1     2.954906040172   110.42913767   271.21103058
 C      9   8   7     2.773080394839   123.91823107   183.17854793
 C     13   9   8     2.666893930387   119.15485759    11.22283912
 C     14  13   9     2.630218780983   120.34072374   180.13366127
 C     15  14  13     2.649761918761   120.12997330     0.00000000
 C     16  15  14     2.641561931856   119.87878049   359.83676386
 C     17  16  15     2.640281975343   120.37989185     0.00000000
 O     10   9   8     2.278314276001   131.44801410   178.52735030
 C     12   7   2     2.830511886811   113.51648753   184.56050048
 C     20  12   7     2.514442288061   127.47944806   273.86559016
 O      5   4   3     2.584646944176   115.84241408   180.18947263
 C     22   5   4     2.705176486129   117.72338502   179.76451396
 F     20  12   7     2.584396461076   112.90354704    91.77114489
 H     12   7   2     2.068993498787   107.40330826   306.42271696
 H      3   2   1     2.053124987561   119.38822529   180.25417421
 H      4   3   2     2.054581891731   120.97304566   180.49509593
 H      6   1   2     2.051252424689   119.21644953   179.43392961
 H      1   2   3     2.053192357374   119.82682569   179.66117616
 H     18  17  16     2.049745413565   120.29686113   180.35530499
 H     17  16  15     2.056093802752   120.08211927   180.10981687
 H     16  15  14     2.056856386989   120.02455787   180.08915538
 H     15  14  13     2.056347500360   119.79432826   180.28762094
 H     14  13   9     2.053359018819   118.85248654     0.62796561
 H     23  22   5     2.065998393203   105.71286910   180.17764876
 H     23  22   5     2.080099535017   111.07286273    61.08527850
 H     23  22   5     2.079926290290   111.07322560   299.27984893
 H     21  20  12     2.050595359223   119.27457899   358.79296791
 H     21  20  12     2.052595979389   121.25826313   178.06236492
 H     12   7   2     2.068564641975   106.61622419    62.82378265

---------------------
BASIS SET INFORMATION
---------------------
There are 5 groups of distinct atoms

 Group   1 Type C   : 8s4p1d contracted to 4s2p1d pattern {5111/31/1}
 Group   2 Type N   : 8s4p1d contracted to 4s2p1d pattern {5111/31/1}
 Group   3 Type O   : 8s4p1d contracted to 4s2p1d pattern {5111/31/1}
 Group   4 Type F   : 8s4p1d contracted to 4s2p1d pattern {5111/31/1}
 Group   5 Type H   : 4s contracted to 2s pattern {31}

Atom   0C    basis set group =>   1
Atom   1C    basis set group =>   1
Atom   2C    basis set group =>   1
Atom   3C    basis set group =>   1
Atom   4C    basis set group =>   1
Atom   5C    basis set group =>   1
Atom   6C    basis set group =>   1
Atom   7N    basis set group =>   2
Atom   8C    basis set group =>   1
Atom   9C    basis set group =>   1
Atom  10O    basis set group =>   3
Atom  11C    basis set group =>   1
Atom  12C    basis set group =>   1
Atom  13C    basis set group =>   1
Atom  14C    basis set group =>   1
Atom  15C    basis set group =>   1
Atom  16C    basis set group =>   1
Atom  17C    basis set group =>   1
Atom  18O    basis set group =>   3
Atom  19C    basis set group =>   1
Atom  20C    basis set group =>   1
Atom  21O    basis set group =>   3
Atom  22C    basis set group =>   1
Atom  23F    basis set group =>   4
Atom  24H    basis set group =>   5
Atom  25H    basis set group =>   5
Atom  26H    basis set group =>   5
Atom  27H    basis set group =>   5
Atom  28H    basis set group =>   5
Atom  29H    basis set group =>   5
Atom  30H    basis set group =>   5
Atom  31H    basis set group =>   5
Atom  32H    basis set group =>   5
Atom  33H    basis set group =>   5
Atom  34H    basis set group =>   5
Atom  35H    basis set group =>   5
Atom  36H    basis set group =>   5
Atom  37H    basis set group =>   5
Atom  38H    basis set group =>   5
Atom  39H    basis set group =>   5
---------------------------------
AUXILIARY/J BASIS SET INFORMATION
---------------------------------
There are 5 groups of distinct atoms

 Group   1 Type C   : 12s5p4d2f1g contracted to 6s4p3d1f1g pattern {711111/2111/211/2/1}
 Group   2 Type N   : 12s5p4d2f1g contracted to 6s4p3d1f1g pattern {711111/2111/211/2/1}
 Group   3 Type O   : 12s5p4d2f1g contracted to 6s4p3d1f1g pattern {711111/2111/211/2/1}
 Group   4 Type F   : 12s5p4d2f1g contracted to 6s4p3d1f1g pattern {711111/2111/211/2/1}
 Group   5 Type H   : 5s2p1d contracted to 3s1p1d pattern {311/2/1}

Atom   0C    basis set group =>   1
Atom   1C    basis set group =>   1
Atom   2C    basis set group =>   1
Atom   3C    basis set group =>   1
Atom   4C    basis set group =>   1
Atom   5C    basis set group =>   1
Atom   6C    basis set group =>   1
Atom   7N    basis set group =>   2
Atom   8C    basis set group =>   1
Atom   9C    basis set group =>   1
Atom  10O    basis set group =>   3
Atom  11C    basis set group =>   1
Atom  12C    basis set group =>   1
Atom  13C    basis set group =>   1
Atom  14C    basis set group =>   1
Atom  15C    basis set group =>   1
Atom  16C    basis set group =>   1
Atom  17C    basis set group =>   1
Atom  18O    basis set group =>   3
Atom  19C    basis set group =>   1
Atom  20C    basis set group =>   1
Atom  21O    basis set group =>   3
Atom  22C    basis set group =>   1
Atom  23F    basis set group =>   4
Atom  24H    basis set group =>   5
Atom  25H    basis set group =>   5
Atom  26H    basis set group =>   5
Atom  27H    basis set group =>   5
Atom  28H    basis set group =>   5
Atom  29H    basis set group =>   5
Atom  30H    basis set group =>   5
Atom  31H    basis set group =>   5
Atom  32H    basis set group =>   5
Atom  33H    basis set group =>   5
Atom  34H    basis set group =>   5
Atom  35H    basis set group =>   5
Atom  36H    basis set group =>   5
Atom  37H    basis set group =>   5
Atom  38H    basis set group =>   5
Atom  39H    basis set group =>   5


           ************************************************************
           *        Program running with 4 parallel MPI-processes     *
           *              working on a common directory               *
           ************************************************************
------------------------------------------------------------------------------
                           ORCA GTO INTEGRAL CALCULATION
                           -- RI-GTO INTEGRALS CHOSEN --
------------------------------------------------------------------------------
------------------------------------------------------------------------------
                   ___                                                        
                  /   \      - P O W E R E D   B Y -                         
                 /     \                                                     
                 |  |  |   _    _      __       _____    __    __             
                 |  |  |  | |  | |    /  \     |  _  \  |  |  /  |          
                  \  \/   | |  | |   /    \    | | | |  |  | /  /          
                 / \  \   | |__| |  /  /\  \   | |_| |  |  |/  /          
                |  |  |   |  __  | /  /__\  \  |    /   |      \           
                |  |  |   | |  | | |   __   |  |    \   |  |\   \          
                \     /   | |  | | |  |  |  |  | |\  \  |  | \   \       
                 \___/    |_|  |_| |__|  |__|  |_| \__\ |__|  \__/        
                                                                              
                      - O R C A' S   B I G   F R I E N D -                    
                                      &                                       
                       - I N T E G R A L  F E E D E R -                       
                                                                              
 v1 FN, 2020, v2 2021                                                         
------------------------------------------------------------------------------


Reading SHARK input file pbeh-3c.SHARKINP.tmp ... ok
----------------------
SHARK INTEGRAL PACKAGE
----------------------

Number of atoms                             ...     40
Number of basis functions                   ...    392
Number of shells                            ...    200
Maximum angular momentum                    ...      2
Integral batch strategy                     ... SHARK/LIBINT Hybrid
RI-J (if used) integral strategy            ... SPLIT-RIJ (Revised 2003 algorithm where possible)
Printlevel                                  ...      1
Contraction scheme used                     ... SEGMENTED contraction
Coulomb Range Separation                    ... NOT USED
Exchange Range Separation                   ... NOT USED
Finite Nucleus Model                        ... NOT USED
Auxiliary Coulomb fitting basis             ... AVAILABLE
   # of basis functions in Aux-J            ...   1352
   # of shells in Aux-J                     ...    440
   Maximum angular momentum in Aux-J        ...      4
Auxiliary J/K fitting basis                 ... NOT available
Auxiliary Correlation fitting basis         ... NOT available
Auxiliary 'external' fitting basis          ... NOT available
Integral threshold                          ...     2.500000e-11
Primitive cut-off                           ...     2.500000e-12
Primitive pair pre-selection threshold      ...     2.500000e-12

Calculating pre-screening integrals         ... done (  0.1 sec) Dimension = 200
Organizing shell pair data                  ... done (  0.5 sec)
Shell pair information
Total number of shell pairs                 ...     20100
Shell pairs after pre-screening             ...     12298
Total number of primitive shell pairs       ...     71236
Primitive shell pairs kept                  ...     27236
          la=0 lb=0:   4316 shell pairs
          la=1 lb=0:   4322 shell pairs
          la=1 lb=1:    987 shell pairs
          la=2 lb=0:   1652 shell pairs
          la=2 lb=1:    844 shell pairs
          la=2 lb=2:    177 shell pairs

Calculating one electron integrals          ... done (  0.1 sec)
Calculating RI/J V-Matrix + Cholesky decomp.... done (  1.5 sec)
Calculating Nuclear repulsion               ... done (  0.0 sec) ENN=   1965.783843993804 Eh

SHARK setup successfully completed in   4.2 seconds

Maximum memory used throughout the entire GTOINT-calculation: 27.5 MB


           ************************************************************
           *        Program running with 4 parallel MPI-processes     *
           *              working on a common directory               *
           ************************************************************
-------------------------------------------------------------------------------
                                 ORCA SCF
-------------------------------------------------------------------------------

------------
SCF SETTINGS
------------
Hamiltonian:
 Density Functional     Method          .... DFT(GTOs)
 Exchange Functional    Exchange        .... PBE
   PBE kappa parameter   XKappa         ....  1.024500
   PBE mue parameter    XMuePBE         ....  0.123457
 Correlation Functional Correlation     .... PBE
   PBE beta parameter  CBetaPBE         ....  0.030000
 LDA part of GGA corr.  LDAOpt          .... PW91-LDA
 Gradients option       PostSCFGGA      .... off
 Hybrid DFT is turned on
   Fraction HF Exchange ScalHFX         ....  0.420000
   Scaling of DF-GGA-X  ScalDFX         ....  0.580000
   Scaling of DF-GGA-C  ScalDFC         ....  1.000000
   Scaling of DF-LDA-C  ScalLDAC        ....  1.000000
   Perturbative correction              ....  0.000000
   Density functional embedding theory  .... OFF
 RI-approximation to the Coulomb term is turned on
   Number of AuxJ basis functions       .... 1352
   RIJ-ON(X) (HFX calculated with O(N)) .... on
   Number of AuxJ basis functions       .... 1352
   RIJ-COSX (HFX calculated with COS-X)).... on


General Settings:
 Integral files         IntName         .... pbeh-3c
 Hartree-Fock type      HFTyp           .... RHF
 Total Charge           Charge          ....    0
 Multiplicity           Mult            ....    1
 Number of Electrons    NEL             ....  170
 Basis Dimension        Dim             ....  392
 Nuclear Repulsion      ENuc            ....   1965.7838439938 Eh

Convergence Acceleration:
 DIIS                   CNVDIIS         .... on
   Start iteration      DIISMaxIt       ....    12
   Startup error        DIISStart       ....  0.200000
   # of expansion vecs  DIISMaxEq       ....     5
   Bias factor          DIISBfac        ....   1.050
   Max. coefficient     DIISMaxC        ....  10.000
 Trust-Rad. Augm. Hess. CNVTRAH         .... auto
   Auto Start mean grad. ratio tolernc. ....  1.125000
   Auto Start start iteration           ....    20
   Auto Start num. interpolation iter.  ....    10
   Max. Number of Micro iterations      ....    16
   Max. Number of Macro iterations      .... Maxiter - #DIIS iter
   Number of Davidson start vectors     ....     2
   Converg. threshold I  (grad. norm)   ....   1.000e-05
   Converg. threshold II (energy diff.) ....   1.000e-08
   Grad. Scal. Fac. for Micro threshold ....   0.100
   Minimum threshold for Micro iter.    ....   0.010
   NR start threshold (gradient norm)   ....   0.001
   Initial trust radius                 ....   0.400
   Minimum AH scaling param. (alpha)    ....   1.000
   Maximum AH scaling param. (alpha)    .... 1000.000
   Orbital update algorithm             .... Taylor
   White noise on init. David. guess    .... on
   Maximum white noise                  ....   0.010
   Quad. conv. algorithm                .... NR
   COSX micro iterations for RIJONX calc.... off
 SOSCF                  CNVSOSCF        .... on
   Start iteration      SOSCFMaxIt      ....   150
   Startup grad/error   SOSCFStart      ....  0.003300
 Level Shifting         CNVShift        .... on
   Level shift para.    LevelShift      ....    0.2500
   Turn off err/grad.   ShiftErr        ....    0.0010
 Zerner damping         CNVZerner       .... off
 Static damping         CNVDamp         .... on
   Fraction old density DampFac         ....    0.7000
   Max. Damping (<1)    DampMax         ....    0.9800
   Min. Damping (>=0)   DampMin         ....    0.0000
   Turn off err/grad.   DampErr         ....    0.1000
 Fernandez-Rico         CNVRico         .... off

SCF Procedure:
 Maximum # iterations   MaxIter         ....   125
 SCF integral mode      SCFMode         .... Direct
   Integral package                     .... SHARK and LIBINT hybrid scheme
 Reset frequency        DirectResetFreq ....    20
 Integral Threshold     Thresh          ....  2.500e-11 Eh
 Primitive CutOff       TCut            ....  2.500e-12 Eh

Convergence Tolerance:
 Convergence Check Mode ConvCheckMode   .... Total+1el-Energy
 Convergence forced     ConvForced      .... 0
 Energy Change          TolE            ....  1.000e-08 Eh
 1-El. energy change                    ....  1.000e-05 Eh
 Orbital Gradient       TolG            ....  1.000e-05
 Orbital Rotation angle TolX            ....  1.000e-05
 DIIS Error             TolErr          ....  5.000e-07


Diagonalization of the overlap matrix:
Smallest eigenvalue                        ... 4.414e-04
Time for diagonalization                   ...    0.078 sec
Threshold for overlap eigenvalues          ... 1.000e-08
Number of eigenvalues below threshold      ... 0
Time for construction of square roots      ...    0.444 sec
Total time needed                          ...    0.523 sec

--------------------------------
INITIAL GUESS: MINIMAL BASIS EHT
--------------------------------
The minimal basis has 136 functions
EHT matrix was diagonalized
Basis set overlap was calculated now projecting the orbitals
Using GuessMode=FMatrix for the initial guess
C*T matrix was formed
Effective Fockian was calculated
Effective Fockian was diagonalized
Initial density was built
                      ------------------
                      INITIAL GUESS DONE
                      ------------------
-------------------
DFT GRID GENERATION
-------------------

General Integration Accuracy     IntAcc      ... 4.959
Radial Grid Type                 RadialGrid  ... OptM3 with GC (2021)
Angular Grid (max. ang.)         AngularGrid ... 6 (Lebedev-590)
Angular grid pruning method      GridPruning ... 4 (adaptive)
Weight generation scheme         WeightScheme... Becke
Basis function cutoff            BFCut       ... 1.0000e-11
Integration weight cutoff        WCut        ... 1.0000e-14
Angular grids for H and He will be reduced by one unit
Partially contracted basis set               ... off
Rotationally invariant grid construction     ... off

Total number of grid points                  ...   478246
Total number of batches                      ...     7491
Average number of points per batch           ...       63
Average number of grid points per atom       ...    11956
Time for grid setup =   14.118 sec

--------------------
COSX GRID GENERATION
--------------------

GRIDX 1
-------
General Integration Accuracy     IntAcc      ... 4.020
Radial Grid Type                 RadialGrid  ... OptM3 with GC (2021)
Angular Grid (max. ang.)         AngularGrid ... 2 (Lebedev-110)
Angular grid pruning method      GridPruning ... 4 (adaptive)
Weight generation scheme         WeightScheme... Becke
Basis function cutoff            BFCut       ... 1.0000e-11
Integration weight cutoff        WCut        ... 1.0000e-14
Angular grids for H and He will be reduced by one unit
Partially contracted basis set               ... on
Rotationally invariant grid construction     ... off

Total number of grid points                  ...    54107
Total number of batches                      ...      864
Average number of points per batch           ...       62
Average number of grid points per atom       ...     1353
UseSFitting                                  ... on

GRIDX 2
-------
General Integration Accuracy     IntAcc      ... 4.338
Radial Grid Type                 RadialGrid  ... OptM3 with GC (2021)
Angular Grid (max. ang.)         AngularGrid ... 3 (Lebedev-194)
Angular grid pruning method      GridPruning ... 4 (adaptive)
Weight generation scheme         WeightScheme... Becke
Basis function cutoff            BFCut       ... 1.0000e-11
Integration weight cutoff        WCut        ... 1.0000e-14
Angular grids for H and He will be reduced by one unit
Partially contracted basis set               ... on
Rotationally invariant grid construction     ... off

Total number of grid points                  ...   118522
Total number of batches                      ...     1873
Average number of points per batch           ...       63
Average number of grid points per atom       ...     2963
UseSFitting                                  ... on

GRIDX 3
-------
General Integration Accuracy     IntAcc      ... 4.871
Radial Grid Type                 RadialGrid  ... OptM3 with GC (2021)
Angular Grid (max. ang.)         AngularGrid ... 4 (Lebedev-302)
Angular grid pruning method      GridPruning ... 4 (adaptive)
Weight generation scheme         WeightScheme... Becke
Basis function cutoff            BFCut       ... 1.0000e-11
Integration weight cutoff        WCut        ... 1.0000e-14
Angular grids for H and He will be reduced by one unit
Partially contracted basis set               ... on
Rotationally invariant grid construction     ... off

Total number of grid points                  ...   220251
Total number of batches                      ...     3461
Average number of points per batch           ...       63
Average number of grid points per atom       ...     5506
UseSFitting                                  ... on

Time for X-Grid setup             =   13.405 sec

--------------
SCF ITERATIONS
--------------
ITER       Energy         Delta-E        Max-DP      RMS-DP      [F,P]     Damp
               ***  Starting incremental Fock matrix formation  ***
  0  -1108.1983288392   0.000000000000 0.19455843  0.00446578  0.6069545 0.7000
  1  -1109.3806057303  -1.182276891059 0.11456581  0.00278806  0.2889590 0.7000
  2  -1110.0202500662  -0.639644335897 0.07739634  0.00178264  0.2013051 0.7000
                               ***Turning on DIIS***
  3  -1110.4663864717  -0.446136405493 0.05915467  0.00124649  0.1405374 0.7000
  4  -1110.7867676297  -0.320381158088 0.14389995  0.00309816  0.0986832 0.0000
  5  -1111.5515551296  -0.764787499843 0.01381656  0.00024395  0.0139979 0.0000
  6  -1111.5528153094  -0.001260179783 0.00530738  0.00008676  0.0095125 0.0000
                      *** Initiating the SOSCF procedure ***
                           *** Shutting down DIIS ***
                      *** Re-Reading the Fockian *** 
                      *** Removing any level shift *** 
ITER      Energy       Delta-E        Grad      Rot      Max-DP    RMS-DP
  7  -1111.55338645  -0.0005711402  0.000571  0.000571  0.002442  0.000038
               *** Restarting incremental Fock matrix formation ***
  8  -1111.55341644  -0.0000299876  0.000323  0.000824  0.000986  0.000025
  9  -1111.55342256  -0.0000061238  0.000293  0.000591  0.000658  0.000014
 10  -1111.55342721  -0.0000046518  0.000084  0.000193  0.000250  0.000005
 11  -1111.55342733  -0.0000001167  0.000072  0.000098  0.000181  0.000002
 12  -1111.55342753  -0.0000002000  0.000019  0.000053  0.000065  0.000001
 13  -1111.55342754  -0.0000000136  0.000013  0.000022  0.000026  0.000000
 14  -1111.55342754   0.0000000063  0.000005  0.000010  0.000010  0.000000
                 **** Energy Check signals convergence ****
              ***Rediagonalizing the Fockian in SOSCF/NRSCF***

               *****************************************************
               *                     SUCCESS                       *
               *           SCF CONVERGED AFTER  15 CYCLES          *
               *****************************************************

Old exchange energy                            =    -61.042318309 Eh
New exchange energy                            =    -61.042326043 Eh
Exchange energy change after final integration =     -0.000007734 Eh
Total energy after final integration           =  -1111.553435268 Eh
Final COS-X integration done in                =    46.998 sec

----------------
TOTAL SCF ENERGY
----------------

Total Energy       :        -1111.55343527 Eh          -30246.90670 eV

Components:
Nuclear Repulsion  :         1965.78384399 Eh           53491.69786 eV
Electronic Energy  :        -3077.33727926 Eh          -83738.60456 eV
One Electron Energy:        -5422.33861720 Eh         -147549.33504 eV
Two Electron Energy:         2345.00133793 Eh           63810.73048 eV
Max COSX asymmetry :            0.00000377 Eh               0.00010 eV

Virial components:
Potential Energy   :        -2214.14946115 Eh          -60250.06989 eV
Kinetic Energy     :         1102.59602588 Eh           30003.16320 eV
Virial Ratio       :            2.00812393


DFT components:
N(Alpha)           :       85.000007159301 electrons
N(Beta)            :       85.000007159301 electrons
N(Total)           :      170.000014318602 electrons
E(X)               :      -81.193390498918 Eh       
E(C)               :       -7.508405561278 Eh       
E(XC)              :      -88.701796060196 Eh       
DFET-embed. en.    :        0.000000000000 Eh       

---------------
SCF CONVERGENCE
---------------

  Last Energy change         ...    3.2019e-09  Tolerance :   1.0000e-08
  Last MAX-Density change    ...    1.9984e-15  Tolerance :   1.0000e-07
  Last RMS-Density change    ...    3.4911e-17  Tolerance :   5.0000e-09
  Last Orbital Gradient      ...    3.5187e-06  Tolerance :   1.0000e-05
  Last Orbital Rotation      ...    4.7506e-06  Tolerance :   1.0000e-05

             **** THE GBW FILE WAS UPDATED (pbeh-3c.gbw) ****
             **** DENSITY pbeh-3c.scfp WAS UPDATED ****
             **** ENERGY FILE WAS UPDATED (pbeh-3c.en.tmp) ****
             **** THE GBW FILE WAS UPDATED (pbeh-3c.gbw) ****
             **** DENSITY pbeh-3c.scfp WAS UPDATED ****
----------------
ORBITAL ENERGIES
----------------

  NO   OCC          E(Eh)            E(eV) 
   0   2.0000     -25.099370      -682.9886 
   1   2.0000     -19.558038      -532.2013 
   2   2.0000     -19.536667      -531.6197 
   3   2.0000     -19.502795      -530.6980 
   4   2.0000     -14.670885      -399.2151 
   5   2.0000     -10.598068      -288.3881 
   6   2.0000     -10.567553      -287.5577 
   7   2.0000     -10.541347      -286.8446 
   8   2.0000     -10.527446      -286.4664 
   9   2.0000     -10.522153      -286.3223 
  10   2.0000     -10.502640      -285.7914 
  11   2.0000     -10.476722      -285.0861 
  12   2.0000     -10.472434      -284.9694 
  13   2.0000     -10.468091      -284.8512 
  14   2.0000     -10.465094      -284.7697 
  15   2.0000     -10.464050      -284.7413 
  16   2.0000     -10.463438      -284.7246 
  17   2.0000     -10.462829      -284.7081 
  18   2.0000     -10.461885      -284.6824 
  19   2.0000     -10.460651      -284.6488 
  20   2.0000     -10.459778      -284.6250 
  21   2.0000     -10.458567      -284.5921 
  22   2.0000     -10.453983      -284.4673 
  23   2.0000     -10.444775      -284.2168 
  24   2.0000      -1.333869       -36.2964 
  25   2.0000      -1.237604       -33.6769 
  26   2.0000      -1.180346       -32.1188 
  27   2.0000      -1.153516       -31.3888 
  28   2.0000      -1.052909       -28.6511 
  29   2.0000      -0.969288       -26.3757 
  30   2.0000      -0.961626       -26.1672 
  31   2.0000      -0.916417       -24.9370 
  32   2.0000      -0.877625       -23.8814 
  33   2.0000      -0.859757       -23.3952 
  34   2.0000      -0.848704       -23.0944 
  35   2.0000      -0.846116       -23.0240 
  36   2.0000      -0.827304       -22.5121 
  37   2.0000      -0.790181       -21.5019 
  38   2.0000      -0.767945       -20.8968 
  39   2.0000      -0.722403       -19.6576 
  40   2.0000      -0.714360       -19.4387 
  41   2.0000      -0.699216       -19.0266 
  42   2.0000      -0.679815       -18.4987 
  43   2.0000      -0.664063       -18.0701 
  44   2.0000      -0.654323       -17.8050 
  45   2.0000      -0.653452       -17.7813 
  46   2.0000      -0.615732       -16.7549 
  47   2.0000      -0.600909       -16.3516 
  48   2.0000      -0.585011       -15.9189 
  49   2.0000      -0.573071       -15.5941 
  50   2.0000      -0.557414       -15.1680 
  51   2.0000      -0.555560       -15.1176 
  52   2.0000      -0.553337       -15.0571 
  53   2.0000      -0.538985       -14.6665 
  54   2.0000      -0.534959       -14.5570 
  55   2.0000      -0.532612       -14.4931 
  56   2.0000      -0.522870       -14.2280 
  57   2.0000      -0.519998       -14.1499 
  58   2.0000      -0.512198       -13.9376 
  59   2.0000      -0.503717       -13.7068 
  60   2.0000      -0.492654       -13.4058 
  61   2.0000      -0.490449       -13.3458 
  62   2.0000      -0.482829       -13.1384 
  63   2.0000      -0.481016       -13.0891 
  64   2.0000      -0.473467       -12.8837 
  65   2.0000      -0.464305       -12.6344 
  66   2.0000      -0.456418       -12.4198 
  67   2.0000      -0.448271       -12.1981 
  68   2.0000      -0.444546       -12.0967 
  69   2.0000      -0.440859       -11.9964 
  70   2.0000      -0.428343       -11.6558 
  71   2.0000      -0.427813       -11.6414 
  72   2.0000      -0.416902       -11.3445 
  73   2.0000      -0.408782       -11.1235 
  74   2.0000      -0.398384       -10.8406 
  75   2.0000      -0.394015       -10.7217 
  76   2.0000      -0.386451       -10.5159 
  77   2.0000      -0.381185       -10.3726 
  78   2.0000      -0.362490        -9.8638 
  79   2.0000      -0.331384        -9.0174 
  80   2.0000      -0.309596        -8.4245 
  81   2.0000      -0.303811        -8.2671 
  82   2.0000      -0.302731        -8.2377 
  83   2.0000      -0.293759        -7.9936 
  84   2.0000      -0.269633        -7.3371 
  85   0.0000      -0.060460        -1.6452 
  86   0.0000       0.005830         0.1586 
  87   0.0000       0.008244         0.2243 
  88   0.0000       0.010710         0.2914 
  89   0.0000       0.016087         0.4377 
  90   0.0000       0.039623         1.0782 
  91   0.0000       0.111797         3.0421 
  92   0.0000       0.128109         3.4860 
  93   0.0000       0.140037         3.8106 
  94   0.0000       0.140896         3.8340 
  95   0.0000       0.145350         3.9552 
  96   0.0000       0.149600         4.0708 
  97   0.0000       0.161037         4.3820 
  98   0.0000       0.170084         4.6282 
  99   0.0000       0.185175         5.0389 
 100   0.0000       0.191566         5.2128 
 101   0.0000       0.197596         5.3769 
 102   0.0000       0.198404         5.3989 
 103   0.0000       0.201948         5.4953 
 104   0.0000       0.204672         5.5694 
 105   0.0000       0.206867         5.6291 
 106   0.0000       0.209614         5.7039 
 107   0.0000       0.216626         5.8947 
 108   0.0000       0.224240         6.1019 
 109   0.0000       0.231674         6.3042 
 110   0.0000       0.233597         6.3565 
 111   0.0000       0.239652         6.5213 
 112   0.0000       0.246839         6.7168 
 113   0.0000       0.253924         6.9096 
 114   0.0000       0.260292         7.0829 
 115   0.0000       0.266751         7.2587 
 116   0.0000       0.273840         7.4516 
 117   0.0000       0.280529         7.6336 
 118   0.0000       0.293947         7.9987 
 119   0.0000       0.305602         8.3159 
 120   0.0000       0.312938         8.5155 
 121   0.0000       0.315939         8.5971 
 122   0.0000       0.325962         8.8699 
 123   0.0000       0.333298         9.0695 
 124   0.0000       0.348828         9.4921 
 125   0.0000       0.354554         9.6479 
 126   0.0000       0.358276         9.7492 
 127   0.0000       0.362837         9.8733 
 128   0.0000       0.387737        10.5509 
 129   0.0000       0.402001        10.9390 
 130   0.0000       0.426405        11.6031 
 131   0.0000       0.452834        12.3222 
 132   0.0000       0.460691        12.5360 
 133   0.0000       0.483515        13.1571 
 134   0.0000       0.490971        13.3600 
 135   0.0000       0.493535        13.4298 
 136   0.0000       0.502508        13.6739 
 137   0.0000       0.512337        13.9414 
 138   0.0000       0.521229        14.1834 
 139   0.0000       0.526080        14.3154 
 140   0.0000       0.530366        14.4320 
 141   0.0000       0.543094        14.7783 
 142   0.0000       0.549163        14.9435 
 143   0.0000       0.552504        15.0344 
 144   0.0000       0.559495        15.2246 
 145   0.0000       0.563612        15.3367 
 146   0.0000       0.573685        15.6108 
 147   0.0000       0.575860        15.6699 
 148   0.0000       0.580101        15.7853 
 149   0.0000       0.582027        15.8378 
 150   0.0000       0.586749        15.9662 
 151   0.0000       0.597516        16.2592 
 152   0.0000       0.600603        16.3432 
 153   0.0000       0.603347        16.4179 
 154   0.0000       0.608204        16.5501 
 155   0.0000       0.608977        16.5711 
 156   0.0000       0.612291        16.6613 
 157   0.0000       0.620446        16.8832 
 158   0.0000       0.625284        17.0148 
 159   0.0000       0.633842        17.2477 
 160   0.0000       0.638788        17.3823 
 161   0.0000       0.644778        17.5453 
 162   0.0000       0.651909        17.7393 
 163   0.0000       0.656395        17.8614 
 164   0.0000       0.661080        17.9889 
 165   0.0000       0.665014        18.0960 
 166   0.0000       0.674725        18.3602 
 167   0.0000       0.684270        18.6199 
 168   0.0000       0.694561        18.9000 
 169   0.0000       0.695661        18.9299 
 170   0.0000       0.702989        19.1293 
 171   0.0000       0.711394        19.3580 
 172   0.0000       0.716638        19.5007 
 173   0.0000       0.729571        19.8526 
 174   0.0000       0.737399        20.0656 
 175   0.0000       0.749112        20.3844 
 176   0.0000       0.768352        20.9079 
 177   0.0000       0.775121        21.0921 
 178   0.0000       0.779642        21.2151 
 179   0.0000       0.798733        21.7346 
 180   0.0000       0.816910        22.2293 
 181   0.0000       0.829052        22.5596 
 182   0.0000       0.846829        23.0434 
 183   0.0000       0.866297        23.5731 
 184   0.0000       0.896984        24.4082 
 185   0.0000       0.909847        24.7582 
 186   0.0000       0.920839        25.0573 
 187   0.0000       0.931374        25.3440 
 188   0.0000       0.941147        25.6099 
 189   0.0000       0.946386        25.7525 
 190   0.0000       0.948360        25.8062 
 191   0.0000       0.955520        26.0010 
 192   0.0000       0.963744        26.2248 
 193   0.0000       0.967598        26.3297 
 194   0.0000       0.973655        26.4945 
 195   0.0000       0.981565        26.7097 
 196   0.0000       0.989302        26.9203 
 197   0.0000       1.001701        27.2577 
 198   0.0000       1.007435        27.4137 
 199   0.0000       1.008892        27.4533 
 200   0.0000       1.014453        27.6047 
 201   0.0000       1.018687        27.7199 
 202   0.0000       1.025435        27.9035 
 203   0.0000       1.035185        28.1688 
 204   0.0000       1.042018        28.3547 
 205   0.0000       1.043478        28.3945 
 206   0.0000       1.047706        28.5095 
 207   0.0000       1.051522        28.6134 
 208   0.0000       1.062472        28.9113 
 209   0.0000       1.069317        29.0976 
 210   0.0000       1.077507        29.3205 
 211   0.0000       1.086125        29.5550 
 212   0.0000       1.107234        30.1294 
 213   0.0000       1.116689        30.3867 
 214   0.0000       1.125372        30.6229 
 215   0.0000       1.136931        30.9375 
 216   0.0000       1.142076        31.0775 
 217   0.0000       1.144751        31.1502 
 218   0.0000       1.150040        31.2942 
 219   0.0000       1.153916        31.3997 
 220   0.0000       1.176258        32.0076 
 221   0.0000       1.196547        32.5597 
 222   0.0000       1.216906        33.1137 
 223   0.0000       1.224856        33.3300 
 224   0.0000       1.235793        33.6276 
 225   0.0000       1.250068        34.0161 
 226   0.0000       1.253504        34.1096 
 227   0.0000       1.261313        34.3221 
 228   0.0000       1.273312        34.6486 
 229   0.0000       1.274861        34.6907 
 230   0.0000       1.287933        35.0465 
 231   0.0000       1.292192        35.1623 
 232   0.0000       1.297177        35.2980 
 233   0.0000       1.303836        35.4792 
 234   0.0000       1.318919        35.8896 
 235   0.0000       1.331314        36.2269 
 236   0.0000       1.336760        36.3751 
 237   0.0000       1.346741        36.6467 
 238   0.0000       1.358168        36.9576 
 239   0.0000       1.373639        37.3786 
 240   0.0000       1.399629        38.0858 
 241   0.0000       1.402782        38.1716 
 242   0.0000       1.414251        38.4837 
 243   0.0000       1.420555        38.6553 
 244   0.0000       1.427107        38.8336 
 245   0.0000       1.458725        39.6939 
 246   0.0000       1.476059        40.1656 
 247   0.0000       1.481388        40.3106 
 248   0.0000       1.483783        40.3758 
 249   0.0000       1.501948        40.8701 
 250   0.0000       1.521488        41.4018 
 251   0.0000       1.525329        41.5063 
 252   0.0000       1.533903        41.7396 
 253   0.0000       1.536833        41.8193 
 254   0.0000       1.554416        42.2978 
 255   0.0000       1.555407        42.3248 
 256   0.0000       1.561319        42.4856 
 257   0.0000       1.578807        42.9615 
 258   0.0000       1.580510        43.0079 
 259   0.0000       1.584289        43.1107 
 260   0.0000       1.608312        43.7644 
 261   0.0000       1.630836        44.3773 
 262   0.0000       1.665254        45.3139 
 263   0.0000       1.712395        46.5966 
 264   0.0000       1.718059        46.7508 
 265   0.0000       1.743028        47.4302 
 266   0.0000       1.758130        47.8412 
 267   0.0000       1.776293        48.3354 
 268   0.0000       1.795554        48.8595 
 269   0.0000       1.813879        49.3582 
 270   0.0000       1.816325        49.4247 
 271   0.0000       1.834357        49.9154 
 272   0.0000       1.841717        50.1157 
 273   0.0000       1.849212        50.3196 
 274   0.0000       1.855803        50.4990 
 275   0.0000       1.874136        50.9978 
 276   0.0000       1.878397        51.1138 
 277   0.0000       1.879758        51.1508 
 278   0.0000       1.900821        51.7240 
 279   0.0000       1.931248        52.5519 
 280   0.0000       1.946008        52.9536 
 281   0.0000       1.952168        53.1212 
 282   0.0000       1.965253        53.4772 
 283   0.0000       1.969914        53.6041 
 284   0.0000       1.983861        53.9836 
 285   0.0000       1.998141        54.3722 
 286   0.0000       2.015351        54.8405 
 287   0.0000       2.033576        55.3364 
 288   0.0000       2.042486        55.5789 
 289   0.0000       2.046048        55.6758 
 290   0.0000       2.049567        55.7715 
 291   0.0000       2.057150        55.9779 
 292   0.0000       2.072611        56.3986 
 293   0.0000       2.082218        56.6600 
 294   0.0000       2.090567        56.8872 
 295   0.0000       2.093207        56.9591 
 296   0.0000       2.109919        57.4138 
 297   0.0000       2.112265        57.4777 
 298   0.0000       2.137510        58.1646 
 299   0.0000       2.147490        58.4362 
 300   0.0000       2.163194        58.8635 
 301   0.0000       2.172287        59.1109 
 302   0.0000       2.177949        59.2650 
 303   0.0000       2.185198        59.4623 
 304   0.0000       2.187204        59.5168 
 305   0.0000       2.196516        59.7702 
 306   0.0000       2.200574        59.8806 
 307   0.0000       2.221797        60.4582 
 308   0.0000       2.232629        60.7529 
 309   0.0000       2.239719        60.9458 
 310   0.0000       2.258399        61.4542 
 311   0.0000       2.271864        61.8206 
 312   0.0000       2.297888        62.5287 
 313   0.0000       2.303973        62.6943 
 314   0.0000       2.309674        62.8494 
 315   0.0000       2.316953        63.0475 
 316   0.0000       2.318665        63.0941 
 317   0.0000       2.328304        63.3564 
 318   0.0000       2.348755        63.9129 
 319   0.0000       2.360615        64.2356 
 320   0.0000       2.365694        64.3738 
 321   0.0000       2.378033        64.7096 
 322   0.0000       2.380850        64.7862 
 323   0.0000       2.399302        65.2883 
 324   0.0000       2.416934        65.7681 
 325   0.0000       2.427459        66.0545 
 326   0.0000       2.471578        67.2551 
 327   0.0000       2.472972        67.2930 
 328   0.0000       2.507099        68.2216 
 329   0.0000       2.523039        68.6554 
 330   0.0000       2.546645        69.2977 
 331   0.0000       2.557553        69.5946 
 332   0.0000       2.592302        70.5401 
 333   0.0000       2.604672        70.8767 
 334   0.0000       2.616801        71.2068 
 335   0.0000       2.635387        71.7125 
 336   0.0000       2.656130        72.2770 
 337   0.0000       2.676159        72.8220 
 338   0.0000       2.696925        73.3871 
 339   0.0000       2.710550        73.7578 
 340   0.0000       2.723915        74.1215 
 341   0.0000       2.738741        74.5249 
 342   0.0000       2.754249        74.9469 
 343   0.0000       2.756561        75.0098 
 344   0.0000       2.760076        75.1055 
 345   0.0000       2.767378        75.3042 
 346   0.0000       2.788185        75.8704 
 347   0.0000       2.794321        76.0373 
 348   0.0000       2.811258        76.4982 
 349   0.0000       2.825926        76.8973 
 350   0.0000       2.847852        77.4940 
 351   0.0000       2.893817        78.7448 
 352   0.0000       2.900027        78.9137 
 353   0.0000       2.916129        79.3519 
 354   0.0000       2.939339        79.9835 
 355   0.0000       2.956158        80.4411 
 356   0.0000       2.973636        80.9167 
 357   0.0000       3.013481        82.0010 
 358   0.0000       3.026325        82.3505 
 359   0.0000       3.034064        82.5611 
 360   0.0000       3.054047        83.1049 
 361   0.0000       3.119962        84.8985 
 362   0.0000       3.160419        85.9994 
 363   0.0000       3.211606        87.3923 
 364   0.0000       3.250631        88.4542 
 365   0.0000       3.365654        91.5841 
 366   0.0000       3.463135        94.2367 
 367   0.0000       3.472120        94.4812 
 368   0.0000      13.244514       360.4015 
 369   0.0000      13.269725       361.0876 
 370   0.0000      13.496255       367.2518 
 371   0.0000      13.606898       370.2625 
 372   0.0000      13.643004       371.2450 
 373   0.0000      13.668413       371.9364 
 374   0.0000      13.717689       373.2773 
 375   0.0000      13.740408       373.8955 
 376   0.0000      13.876160       377.5895 
 377   0.0000      13.888822       377.9341 
 378   0.0000      14.046613       382.2278 
 379   0.0000      14.116767       384.1368 
 380   0.0000      14.149051       385.0152 
 381   0.0000      14.164730       385.4419 
 382   0.0000      14.174103       385.6969 
 383   0.0000      14.202067       386.4579 
 384   0.0000      14.265303       388.1786 
 385   0.0000      14.512824       394.9140 
 386   0.0000      14.517005       395.0278 
 387   0.0000      19.520239       531.1727 
 388   0.0000      25.710382       699.6151 
 389   0.0000      25.760722       700.9849 
 390   0.0000      25.874892       704.0916 
 391   0.0000      32.913684       895.6269 

                    ********************************
                    * MULLIKEN POPULATION ANALYSIS *
                    ********************************

-----------------------
MULLIKEN ATOMIC CHARGES
-----------------------
   0 C :   -0.255564
   1 C :    0.079406
   2 C :   -0.249175
   3 C :   -0.289491
   4 C :    0.386892
   5 C :   -0.335620
   6 C :    0.229777
   7 N :   -0.326500
   8 C :    0.079710
   9 C :    0.552187
  10 O :   -0.459267
  11 C :   -0.523578
  12 C :    0.063916
  13 C :   -0.242379
  14 C :   -0.211213
  15 C :   -0.216966
  16 C :   -0.208402
  17 C :   -0.292829
  18 O :   -0.353845
  19 C :    0.508518
  20 C :   -0.621756
  21 O :   -0.463414
  22 C :   -0.404074
  23 F :   -0.320192
  24 H :    0.274982
  25 H :    0.243883
  26 H :    0.240955
  27 H :    0.238190
  28 H :    0.242882
  29 H :    0.269570
  30 H :    0.229779
  31 H :    0.228909
  32 H :    0.227941
  33 H :    0.249062
  34 H :    0.245431
  35 H :    0.209605
  36 H :    0.211621
  37 H :    0.245639
  38 H :    0.250607
  39 H :    0.264802
Sum of atomic charges:    0.0000000

--------------------------------
MULLIKEN REDUCED ORBITAL CHARGES
--------------------------------
  0 C s       :     3.289763  s :     3.289763
      pz      :     1.026844  p :     2.925731
      px      :     0.895026
      py      :     1.003861
      dz2     :     0.007390  d :     0.040071
      dxz     :     0.010103
      dyz     :     0.007262
      dx2y2   :     0.007184
      dxy     :     0.008131
  1 C s       :     3.164611  s :     3.164611
      pz      :     0.914121  p :     2.713924
      px      :     0.836033
      py      :     0.963770
      dz2     :     0.010338  d :     0.042059
      dxz     :     0.009540
      dyz     :     0.006668
      dx2y2   :     0.007193
      dxy     :     0.008320
  2 C s       :     3.285531  s :     3.285531
      pz      :     1.004622  p :     2.923630
      px      :     0.968419
      py      :     0.950588
      dz2     :     0.007174  d :     0.040014
      dxz     :     0.012690
      dyz     :     0.005370
      dx2y2   :     0.008166
      dxy     :     0.006615
  3 C s       :     3.266929  s :     3.266929
      pz      :     1.010674  p :     2.985524
      px      :     0.936747
      py      :     1.038103
      dz2     :     0.006165  d :     0.037039
      dxz     :     0.010625
      dyz     :     0.006565
      dx2y2   :     0.006473
      dxy     :     0.007210
  4 C s       :     3.074098  s :     3.074098
      pz      :     0.868899  p :     2.463377
      px      :     0.713251
      py      :     0.881227
      dz2     :     0.014086  d :     0.075633
      dxz     :     0.019288
      dyz     :     0.008133
      dx2y2   :     0.016496
      dxy     :     0.017630
  5 C s       :     3.247954  s :     3.247954
      pz      :     0.997725  p :     3.050430
      px      :     1.024833
      py      :     1.027872
      dz2     :     0.006556  d :     0.037236
      dxz     :     0.011901
      dyz     :     0.005552
      dx2y2   :     0.007306
      dxy     :     0.005920
  6 C s       :     3.172031  s :     3.172031
      pz      :     0.658009  p :     2.509509
      px      :     0.926699
      py      :     0.924802
      dz2     :     0.023940  d :     0.088682
      dxz     :     0.015545
      dyz     :     0.017241
      dx2y2   :     0.014865
      dxy     :     0.017092
  7 N s       :     3.668162  s :     3.668162
      pz      :     1.467777  p :     3.615494
      px      :     1.044477
      py      :     1.103240
      dz2     :     0.008461  d :     0.042845
      dxz     :     0.012641
      dyz     :     0.009694
      dx2y2   :     0.004580
      dxy     :     0.007468
  8 C s       :     3.183706  s :     3.183706
      pz      :     0.912946  p :     2.670146
      px      :     0.868243
      py      :     0.888956
      dz2     :     0.017033  d :     0.066438
      dxz     :     0.015896
      dyz     :     0.009876
      dx2y2   :     0.011982
      dxy     :     0.011652
  9 C s       :     2.957316  s :     2.957316
      pz      :     0.862736  p :     2.357334
      px      :     0.727356
      py      :     0.767243
      dz2     :     0.036151  d :     0.133163
      dxz     :     0.031398
      dyz     :     0.025782
      dx2y2   :     0.020514
      dxy     :     0.019318
 10 O s       :     3.824259  s :     3.824259
      pz      :     1.436053  p :     4.602686
      px      :     1.464854
      py      :     1.701779
      dz2     :     0.010502  d :     0.032322
      dxz     :     0.004276
      dyz     :     0.004660
      dx2y2   :     0.005994
      dxy     :     0.006891
 11 C s       :     3.372631  s :     3.372631
      pz      :     1.169380  p :     3.109957
      px      :     0.994583
      py      :     0.945994
      dz2     :     0.008575  d :     0.040990
      dxz     :     0.007209
      dyz     :     0.006863
      dx2y2   :     0.008126
      dxy     :     0.010217
 12 C s       :     3.220136  s :     3.220136
      pz      :     0.847094  p :     2.672662
      px      :     0.856080
      py      :     0.969488
      dz2     :     0.012119  d :     0.043286
      dxz     :     0.011179
      dyz     :     0.008065
      dx2y2   :     0.005110
      dxy     :     0.006812
 13 C s       :     3.291681  s :     3.291681
      pz      :     1.000150  p :     2.911716
      px      :     0.971704
      py      :     0.939863
      dz2     :     0.009176  d :     0.038982
      dxz     :     0.012361
      dyz     :     0.006624
      dx2y2   :     0.005541
      dxy     :     0.005279
 14 C s       :     3.250173  s :     3.250173
      pz      :     1.022697  p :     2.921997
      px      :     0.923189
      py      :     0.976110
      dz2     :     0.011475  d :     0.039043
      dxz     :     0.009909
      dyz     :     0.005719
      dx2y2   :     0.005961
      dxy     :     0.005979
 15 C s       :     3.260624  s :     3.260624
      pz      :     0.910118  p :     2.916901
      px      :     1.023109
      py      :     0.983674
      dz2     :     0.011403  d :     0.039442
      dxz     :     0.010394
      dyz     :     0.007847
      dx2y2   :     0.003563
      dxy     :     0.006234
 16 C s       :     3.249215  s :     3.249215
      pz      :     0.971229  p :     2.920282
      px      :     0.973199
      py      :     0.975854
      dz2     :     0.009329  d :     0.038905
      dxz     :     0.012720
      dyz     :     0.006553
      dx2y2   :     0.005127
      dxy     :     0.005176
 17 C s       :     3.310878  s :     3.310878
      pz      :     1.078100  p :     2.942955
      px      :     0.921515
      py      :     0.943340
      dz2     :     0.010819  d :     0.038996
      dxz     :     0.010057
      dyz     :     0.005832
      dx2y2   :     0.006302
      dxy     :     0.005986
 18 O s       :     3.765844  s :     3.765844
      pz      :     1.427245  p :     4.556828
      px      :     1.612667
      py      :     1.516916
      dz2     :     0.009731  d :     0.031174
      dxz     :     0.008714
      dyz     :     0.008481
      dx2y2   :     0.001816
      dxy     :     0.002431
 19 C s       :     3.061140  s :     3.061140
      pz      :     0.680321  p :     2.352910
      px      :     0.760172
      py      :     0.912417
      dz2     :     0.021670  d :     0.077433
      dxz     :     0.022324
      dyz     :     0.012294
      dx2y2   :     0.010693
      dxy     :     0.010451
 20 C s       :     3.364723  s :     3.364723
      pz      :     1.069930  p :     3.226394
      px      :     1.104750
      py      :     1.051714
      dz2     :     0.007216  d :     0.030639
      dxz     :     0.008482
      dyz     :     0.004647
      dx2y2   :     0.006051
      dxy     :     0.004243
 21 O s       :     3.793381  s :     3.793381
      pz      :     1.617502  p :     4.637847
      px      :     1.282007
      py      :     1.738338
      dz2     :     0.005896  d :     0.032185
      dxz     :     0.009070
      dyz     :     0.003966
      dx2y2   :     0.005548
      dxy     :     0.007705
 22 C s       :     3.342378  s :     3.342378
      pz      :     0.938713  p :     3.002217
      px      :     0.932912
      py      :     1.130592
      dz2     :     0.014925  d :     0.059479
      dxz     :     0.015436
      dyz     :     0.007477
      dx2y2   :     0.011209
      dxy     :     0.010432
 23 F s       :     3.908154  s :     3.908154
      pz      :     1.642796  p :     5.383814
      px      :     1.836189
      py      :     1.904829
      dz2     :     0.008951  d :     0.028224
      dxz     :     0.008299
      dyz     :     0.006043
      dx2y2   :     0.002576
      dxy     :     0.002355
 24 H s       :     0.725018  s :     0.725018
 25 H s       :     0.756117  s :     0.756117
 26 H s       :     0.759045  s :     0.759045
 27 H s       :     0.761810  s :     0.761810
 28 H s       :     0.757118  s :     0.757118
 29 H s       :     0.730430  s :     0.730430
 30 H s       :     0.770221  s :     0.770221
 31 H s       :     0.771091  s :     0.771091
 32 H s       :     0.772059  s :     0.772059
 33 H s       :     0.750938  s :     0.750938
 34 H s       :     0.754569  s :     0.754569
 35 H s       :     0.790395  s :     0.790395
 36 H s       :     0.788379  s :     0.788379
 37 H s       :     0.754361  s :     0.754361
 38 H s       :     0.749393  s :     0.749393
 39 H s       :     0.735198  s :     0.735198


                     *******************************
                     * LOEWDIN POPULATION ANALYSIS *
                     *******************************

----------------------
LOEWDIN ATOMIC CHARGES
----------------------
   0 C :   -0.111816
   1 C :   -0.079344
   2 C :   -0.112153
   3 C :   -0.152468
   4 C :    0.079580
   5 C :   -0.189907
   6 C :    0.118070
   7 N :   -0.107041
   8 C :    0.011514
   9 C :    0.154461
  10 O :   -0.155780
  11 C :   -0.230477
  12 C :   -0.069031
  13 C :   -0.094603
  14 C :   -0.134330
  15 C :   -0.115032
  16 C :   -0.134358
  17 C :   -0.107465
  18 O :   -0.187205
  19 C :    0.141207
  20 C :   -0.305076
  21 O :   -0.187852
  22 C :   -0.176597
  23 F :   -0.179390
  24 H :    0.161778
  25 H :    0.151050
  26 H :    0.149953
  27 H :    0.143247
  28 H :    0.149248
  29 H :    0.160505
  30 H :    0.141276
  31 H :    0.140310
  32 H :    0.140701
  33 H :    0.153858
  34 H :    0.134762
  35 H :    0.116314
  36 H :    0.117298
  37 H :    0.152871
  38 H :    0.153372
  39 H :    0.158552

-------------------------------
LOEWDIN REDUCED ORBITAL CHARGES
-------------------------------
  0 C s       :     2.889736  s :     2.889736
      pz      :     1.057455  p :     3.131547
      px      :     1.063069
      py      :     1.011022
      dz2     :     0.016438  d :     0.090533
      dxz     :     0.025230
      dyz     :     0.012848
      dx2y2   :     0.017547
      dxy     :     0.018470
  1 C s       :     2.850338  s :     2.850338
      pz      :     1.078391  p :     3.125701
      px      :     1.019527
      py      :     1.027783
      dz2     :     0.025462  d :     0.103305
      dxz     :     0.024950
      dyz     :     0.016104
      dx2y2   :     0.017288
      dxy     :     0.019501
  2 C s       :     2.891184  s :     2.891184
      pz      :     1.055088  p :     3.130889
      px      :     1.075567
      py      :     1.000233
      dz2     :     0.016564  d :     0.090081
      dxz     :     0.028007
      dyz     :     0.011942
      dx2y2   :     0.017717
      dxy     :     0.015851
  3 C s       :     2.894229  s :     2.894229
      pz      :     1.060090  p :     3.173947
      px      :     1.068753
      py      :     1.045104
      dz2     :     0.014131  d :     0.084292
      dxz     :     0.026528
      dyz     :     0.011544
      dx2y2   :     0.015736
      dxy     :     0.016353
  4 C s       :     2.830240  s :     2.830240
      pz      :     1.063503  p :     2.915924
      px      :     0.897032
      py      :     0.955389
      dz2     :     0.031762  d :     0.174256
      dxz     :     0.046730
      dyz     :     0.019208
      dx2y2   :     0.036695
      dxy     :     0.039861
  5 C s       :     2.892101  s :     2.892101
      pz      :     1.067064  p :     3.213338
      px      :     1.081154
      py      :     1.065120
      dz2     :     0.015215  d :     0.084469
      dxz     :     0.026367
      dyz     :     0.012567
      dx2y2   :     0.016041
      dxy     :     0.014279
  6 C s       :     2.833007  s :     2.833007
      pz      :     0.816479  p :     2.851033
      px      :     1.011772
      py      :     1.022782
      dz2     :     0.055114  d :     0.197890
      dxz     :     0.032243
      dyz     :     0.040240
      dx2y2   :     0.033004
      dxy     :     0.037288
  7 N s       :     3.236657  s :     3.236657
      pz      :     1.504112  p :     3.781894
      px      :     1.130751
      py      :     1.147032
      dz2     :     0.016197  d :     0.088490
      dxz     :     0.028237
      dyz     :     0.014152
      dx2y2   :     0.012168
      dxy     :     0.017736
  8 C s       :     2.868784  s :     2.868784
      pz      :     1.020686  p :     2.967231
      px      :     1.018438
      py      :     0.928108
      dz2     :     0.041036  d :     0.152471
      dxz     :     0.039390
      dyz     :     0.021716
      dx2y2   :     0.025685
      dxy     :     0.024644
  9 C s       :     2.843417  s :     2.843417
      pz      :     1.021721  p :     2.702217
      px      :     0.864412
      py      :     0.816084
      dz2     :     0.082031  d :     0.299905
      dxz     :     0.072680
      dyz     :     0.055494
      dx2y2   :     0.046457
      dxy     :     0.043242
 10 O s       :     3.464508  s :     3.464508
      pz      :     1.457346  p :     4.623385
      px      :     1.476609
      py      :     1.689431
      dz2     :     0.022859  d :     0.067887
      dxz     :     0.011138
      dyz     :     0.008926
      dx2y2   :     0.010907
      dxy     :     0.014057
 11 C s       :     2.923998  s :     2.923998
      pz      :     1.114482  p :     3.223114
      px      :     1.069951
      py      :     1.038681
      dz2     :     0.015796  d :     0.083365
      dxz     :     0.013234
      dyz     :     0.014173
      dx2y2   :     0.018842
      dxy     :     0.021321
 12 C s       :     2.842837  s :     2.842837
      pz      :     1.089355  p :     3.119731
      px      :     1.023377
      py      :     1.007000
      dz2     :     0.032337  d :     0.106463
      dxz     :     0.029866
      dyz     :     0.018614
      dx2y2   :     0.010599
      dxy     :     0.015047
 13 C s       :     2.895705  s :     2.895705
      pz      :     1.076884  p :     3.111729
      px      :     1.053496
      py      :     0.981349
      dz2     :     0.022105  d :     0.087169
      dxz     :     0.028126
      dyz     :     0.014860
      dx2y2   :     0.010801
      dxy     :     0.011276
 14 C s       :     2.895749  s :     2.895749
      pz      :     1.079163  p :     3.150422
      px      :     1.061136
      py      :     1.010123
      dz2     :     0.024630  d :     0.088159
      dxz     :     0.024685
      dyz     :     0.011871
      dx2y2   :     0.012864
      dxy     :     0.014110
 15 C s       :     2.901036  s :     2.901036
      pz      :     1.088709  p :     3.125827
      px      :     1.050332
      py      :     0.986786
      dz2     :     0.028991  d :     0.088170
      dxz     :     0.025667
      dyz     :     0.017423
      dx2y2   :     0.005798
      dxy     :     0.010292
 16 C s       :     2.895859  s :     2.895859
      pz      :     1.081403  p :     3.150408
      px      :     1.058647
      py      :     1.010358
      dz2     :     0.022875  d :     0.088091
      dxz     :     0.029058
      dyz     :     0.014705
      dx2y2   :     0.010122
      dxy     :     0.011332
 17 C s       :     2.898211  s :     2.898211
      pz      :     1.093987  p :     3.122323
      px      :     1.044777
      py      :     0.983560
      dz2     :     0.023021  d :     0.086931
      dxz     :     0.024513
      dyz     :     0.011996
      dx2y2   :     0.013498
      dxy     :     0.013904
 18 O s       :     3.515698  s :     3.515698
      pz      :     1.504954  p :     4.614343
      px      :     1.608949
      py      :     1.500440
      dz2     :     0.020222  d :     0.057165
      dxz     :     0.018295
      dyz     :     0.011751
      dx2y2   :     0.003366
      dxy     :     0.003529
 19 C s       :     2.847257  s :     2.847257
      pz      :     0.869429  p :     2.825405
      px      :     0.968004
      py      :     0.987972
      dz2     :     0.053177  d :     0.186132
      dxz     :     0.052641
      dyz     :     0.032270
      dx2y2   :     0.024606
      dxy     :     0.023437
 20 C s       :     2.968225  s :     2.968225
      pz      :     1.092517  p :     3.275645
      px      :     1.101825
      py      :     1.081303
      dz2     :     0.014527  d :     0.061205
      dxz     :     0.016884
      dyz     :     0.010728
      dx2y2   :     0.009810
      dxy     :     0.009255
 21 O s       :     3.434228  s :     3.434228
      pz      :     1.631960  p :     4.683027
      px      :     1.318873
      py      :     1.732193
      dz2     :     0.012227  d :     0.070597
      dxz     :     0.020850
      dyz     :     0.006277
      dx2y2   :     0.014059
      dxy     :     0.017184
 22 C s       :     2.962408  s :     2.962408
      pz      :     0.992834  p :     3.097785
      px      :     0.969260
      py      :     1.135691
      dz2     :     0.030018  d :     0.116404
      dxz     :     0.031881
      dyz     :     0.014328
      dx2y2   :     0.020583
      dxy     :     0.019594
 23 F s       :     3.716643  s :     3.716643
      pz      :     1.656115  p :     5.382904
      px      :     1.834387
      py      :     1.892403
      dz2     :     0.024494  d :     0.079843
      dxz     :     0.023515
      dyz     :     0.017307
      dx2y2   :     0.007957
      dxy     :     0.006569
 24 H s       :     0.838222  s :     0.838222
 25 H s       :     0.848950  s :     0.848950
 26 H s       :     0.850047  s :     0.850047
 27 H s       :     0.856753  s :     0.856753
 28 H s       :     0.850752  s :     0.850752
 29 H s       :     0.839495  s :     0.839495
 30 H s       :     0.858724  s :     0.858724
 31 H s       :     0.859690  s :     0.859690
 32 H s       :     0.859299  s :     0.859299
 33 H s       :     0.846142  s :     0.846142
 34 H s       :     0.865238  s :     0.865238
 35 H s       :     0.883686  s :     0.883686
 36 H s       :     0.882702  s :     0.882702
 37 H s       :     0.847129  s :     0.847129
 38 H s       :     0.846628  s :     0.846628
 39 H s       :     0.841448  s :     0.841448


                      *****************************
                      * MAYER POPULATION ANALYSIS *
                      *****************************

  NA   - Mulliken gross atomic population
  ZA   - Total nuclear charge
  QA   - Mulliken gross atomic charge
  VA   - Mayer's total valence
  BVA  - Mayer's bonded valence
  FA   - Mayer's free valence

  ATOM       NA         ZA         QA         VA         BVA        FA
  0 C      6.2556     6.0000    -0.2556     3.8138     3.8138    -0.0000
  1 C      5.9206     6.0000     0.0794     3.6813     3.6813     0.0000
  2 C      6.2492     6.0000    -0.2492     3.7960     3.7960    -0.0000
  3 C      6.2895     6.0000    -0.2895     3.7953     3.7953    -0.0000
  4 C      5.6131     6.0000     0.3869     3.7478     3.7478     0.0000
  5 C      6.3356     6.0000    -0.3356     3.7438     3.7438     0.0000
  6 C      5.7702     6.0000     0.2298     3.8359     3.8359    -0.0000
  7 N      7.3265     7.0000    -0.3265     3.0278     3.0278     0.0000
  8 C      5.9203     6.0000     0.0797     3.7935     3.7935     0.0000
  9 C      5.4478     6.0000     0.5522     4.0583     4.0583     0.0000
 10 O      8.4593     8.0000    -0.4593     2.1243     2.1243    -0.0000
 11 C      6.5236     6.0000    -0.5236     3.6210     3.6210     0.0000
 12 C      5.9361     6.0000     0.0639     3.6967     3.6967     0.0000
 13 C      6.2424     6.0000    -0.2424     3.7751     3.7751    -0.0000
 14 C      6.2112     6.0000    -0.2112     3.7940     3.7940    -0.0000
 15 C      6.2170     6.0000    -0.2170     3.8090     3.8090     0.0000
 16 C      6.2084     6.0000    -0.2084     3.7915     3.7915    -0.0000
 17 C      6.2928     6.0000    -0.2928     3.7609     3.7609     0.0000
 18 O      8.3538     8.0000    -0.3538     2.2643     2.2643    -0.0000
 19 C      5.4915     6.0000     0.5085     3.7228     3.7228     0.0000
 20 C      6.6218     6.0000    -0.6218     3.7410     3.7410    -0.0000
 21 O      8.4634     8.0000    -0.4634     2.1073     2.1073     0.0000
 22 C      6.4041     6.0000    -0.4041     3.6893     3.6893     0.0000
 23 F      9.3202     9.0000    -0.3202     1.0926     1.0926     0.0000
 24 H      0.7250     1.0000     0.2750     0.8908     0.8908    -0.0000
 25 H      0.7561     1.0000     0.2439     0.9155     0.9155     0.0000
 26 H      0.7590     1.0000     0.2410     0.9093     0.9093     0.0000
 27 H      0.7618     1.0000     0.2382     0.9103     0.9103     0.0000
 28 H      0.7571     1.0000     0.2429     0.9152     0.9152     0.0000
 29 H      0.7304     1.0000     0.2696     0.9136     0.9136    -0.0000
 30 H      0.7702     1.0000     0.2298     0.9096     0.9096    -0.0000
 31 H      0.7711     1.0000     0.2289     0.9095     0.9095    -0.0000
 32 H      0.7721     1.0000     0.2279     0.9103     0.9103     0.0000
 33 H      0.7509     1.0000     0.2491     0.9128     0.9128    -0.0000
 34 H      0.7546     1.0000     0.2454     0.9081     0.9081    -0.0000
 35 H      0.7904     1.0000     0.2096     0.9092     0.9092    -0.0000
 36 H      0.7884     1.0000     0.2116     0.9087     0.9087    -0.0000
 37 H      0.7544     1.0000     0.2456     0.9169     0.9169     0.0000
 38 H      0.7494     1.0000     0.2506     0.9127     0.9127    -0.0000
 39 H      0.7352     1.0000     0.2648     0.8929     0.8929     0.0000

  Mayer bond orders larger than 0.100000
B(  0-C ,  1-C ) :   1.4097 B(  0-C ,  5-C ) :   1.4011 B(  0-C , 28-H ) :   0.9110 
B(  1-C ,  2-C ) :   1.3616 B(  1-C ,  6-C ) :   0.9490 B(  2-C ,  3-C ) :   1.4555 
B(  2-C , 25-H ) :   0.9079 B(  3-C ,  4-C ) :   1.3471 B(  3-C , 26-H ) :   0.9089 
B(  4-C ,  5-C ) :   1.3260 B(  4-C , 21-O ) :   1.0525 B(  5-C , 27-H ) :   0.9062 
B(  6-C ,  7-N ) :   1.0698 B(  6-C , 10-O ) :   0.8799 B(  6-C , 11-C ) :   0.9100 
B(  7-N ,  8-C ) :   1.8336 B(  8-C ,  9-C ) :   0.9139 B(  8-C , 12-C ) :   0.9883 
B(  9-C , 10-O ) :   1.0778 B(  9-C , 18-O ) :   2.0592 B( 11-C , 19-C ) :   0.9683 
B( 11-C , 24-H ) :   0.8905 B( 11-C , 39-H ) :   0.8925 B( 12-C , 13-C ) :   1.3501 
B( 12-C , 17-C ) :   1.3773 B( 13-C , 14-C ) :   1.4395 B( 13-C , 33-H ) :   0.9047 
B( 14-C , 15-C ) :   1.3971 B( 14-C , 32-H ) :   0.9183 B( 15-C , 16-C ) :   1.4240 
B( 15-C , 31-H ) :   0.9173 B( 16-C , 17-C ) :   1.4080 B( 16-C , 30-H ) :   0.9178 
B( 17-C , 29-H ) :   0.8875 B( 19-C , 20-C ) :   1.8212 B( 19-C , 23-F ) :   0.9780 
B( 20-C , 37-H ) :   0.9137 B( 20-C , 38-H ) :   0.9148 B( 21-O , 22-C ) :   0.9382 
B( 22-C , 34-H ) :   0.9211 B( 22-C , 35-H ) :   0.9073 B( 22-C , 36-H ) :   0.9067 


-------
TIMINGS
-------

Total SCF time: 0 days 0 hours 7 min 40 sec 

Total time                  ....     460.196 sec
Sum of individual times     ....     451.302 sec  ( 98.1%)

Fock matrix formation       ....     412.830 sec  ( 89.7%)
  Split-RI-J                ....      28.251 sec  (  6.8% of F)
  Chain of spheres X        ....     314.941 sec  ( 76.3% of F)
  XC integration            ....      56.482 sec  ( 13.7% of F)
    Basis function eval.    ....      17.887 sec  ( 31.7% of XC)
    Density eval.           ....      11.533 sec  ( 20.4% of XC)
    XC-Functional eval.     ....       4.263 sec  (  7.5% of XC)
    XC-Potential eval.      ....       6.718 sec  ( 11.9% of XC)
Diagonalization             ....       3.873 sec  (  0.8%)
Density matrix formation    ....       0.150 sec  (  0.0%)
Population analysis         ....       0.201 sec  (  0.0%)
Initial guess               ....       0.272 sec  (  0.1%)
Orbital Transformation      ....       0.000 sec  (  0.0%)
Orbital Orthonormalization  ....       0.000 sec  (  0.0%)
DIIS solution               ....       4.358 sec  (  0.9%)
SOSCF solution              ....       2.096 sec  (  0.5%)
Grid generation             ....      27.523 sec  (  6.0%)

Maximum memory used throughout the entire SCF-calculation: 131.5 MB


-------------------------------------------------------------------------------
                          DFT DISPERSION CORRECTION                            
                                                                               
                              DFTD3 V3.1  Rev 1                                
                          USING Becke-Johnson damping                          
-------------------------------------------------------------------------------
The PBEh-3c composite method is recognized
Using three-body term ABC
Active option DFTDOPT                   ...         4   

molecular C6(AA) [au] = 18987.235041 


            DFT-D V3
 parameters
 s6 scaling factor         :     1.0000 
 a1 scaling factor         :     0.4860 
 s8 scaling factor         :     0.0000 
 a2 scaling factor         :     4.5000 
 Damping factor alpha9(ATM):    16.0000 
 ad hoc parameters k1-k3   :    16.0000     1.3333    -4.0000 

 Edisp/kcal,au: -18.428521894287  -0.029367715852 
 E6   /kcal   : -18.521994769 
 E8   /kcal   :  -0.000000000 
 E6(ABC)      :   0.093472875 
 % E8         :   0.000000000 
 % E6(ABC)    :  -0.507218514 

-------------------------   ----------------
Dispersion correction           -0.029367716
-------------------------   ----------------

------------------   -----------------
gCP correction             0.074798807
------------------   -----------------

-------------------------   --------------------
FINAL SINGLE POINT ENERGY     -1111.508004176610
-------------------------   --------------------


                            ***************************************
                            *     ORCA property calculations      *
                            ***************************************

                                    ---------------------
                                    Active property flags
                                    ---------------------
   (+) Dipole Moment


------------------------------------------------------------------------------
                       ORCA ELECTRIC PROPERTIES CALCULATION
------------------------------------------------------------------------------

Dipole Moment Calculation                       ... on
Quadrupole Moment Calculation                   ... off
Polarizability Calculation                      ... off
GBWName                                         ... pbeh-3c.gbw
Electron density                                ... pbeh-3c.scfp
The origin for moment calculation is the CENTER OF MASS  = ( 0.404401,  0.163287  0.028406)

-------------
DIPOLE MOMENT
-------------
                                X             Y             Z
Electronic contribution:      9.76014       4.18084      -1.39725
Nuclear contribution   :    -10.58538      -4.36950       1.20069
                        -----------------------------------------
Total Dipole Moment    :     -0.82524      -0.18866      -0.19656
                        -----------------------------------------
Magnitude (a.u.)       :      0.86905
Magnitude (Debye)      :      2.20894



--------------------
Rotational spectrum 
--------------------
 
Rotational constants in cm-1:     0.012994     0.004332     0.003919 
Rotational constants in MHz :   389.537369   129.865402   117.479402 

 Dipole components along the rotational axes: 
x,y,z [a.u.] :     0.825235    -0.188657    -0.196560 
x,y,z [Debye]:     2.097580    -0.479529    -0.499617 

 

Timings for individual modules:

Sum of individual times         ...      466.508 sec (=   7.775 min)
GTO integral calculation        ...        5.355 sec (=   0.089 min)   1.1 %
SCF iterations                  ...      461.153 sec (=   7.686 min)  98.9 %
                             ****ORCA TERMINATED NORMALLY****
TOTAL RUN TIME: 0 days 0 hours 7 minutes 49 seconds 129 msec
