
                                 *****************
                                 * O   R   C   A *
                                 *****************

                                            #,                                       
                                            ###                                      
                                            ####                                     
                                            #####                                    
                                            ######                                   
                                           ########,                                 
                                     ,,################,,,,,                         
                               ,,#################################,,                 
                          ,,##########################################,,             
                       ,#########################################, ''#####,          
                    ,#############################################,,   '####,        
                  ,##################################################,,,,####,       
                ,###########''''           ''''###############################       
              ,#####''   ,,,,##########,,,,          '''####'''          '####       
            ,##' ,,,,###########################,,,                        '##       
           ' ,,###''''                  '''############,,,                           
         ,,##''                                '''############,,,,        ,,,,,,###''
      ,#''                                            '''#######################'''  
     '                                                          ''''####''''         
             ,#######,   #######,   ,#######,      ##                                
            ,#'     '#,  ##    ##  ,#'     '#,    #''#        ######   ,####,        
            ##       ##  ##   ,#'  ##            #'  '#       #        #'  '#        
            ##       ##  #######   ##           ,######,      #####,   #    #        
            '#,     ,#'  ##    ##  '#,     ,#' ,#      #,         ##   #,  ,#        
             '#######'   ##     ##  '#######'  #'      '#     #####' # '####'        



                  #######################################################
                  #                        -***-                        #
                  #          Department of theory and spectroscopy      #
                  #    Directorship and core code : Frank Neese         #
                  #        Max Planck Institute fuer Kohlenforschung    #
                  #                Kaiser Wilhelm Platz 1               #
                  #                 D-45470 Muelheim/Ruhr               #
                  #                      Germany                        #
                  #                                                     #
                  #                  All rights reserved                #
                  #                        -***-                        #
                  #######################################################


                         Program Version 5.0.3 -  RELEASE  -


 With contributions from (in alphabetic order):
   Daniel Aravena         : Magnetic Suceptibility
   Michael Atanasov       : Ab Initio Ligand Field Theory (pilot matlab implementation)
   Alexander A. Auer      : GIAO ZORA, VPT2 properties, NMR spectrum
   Ute Becker             : Parallelization
   Giovanni Bistoni       : ED, misc. LED, open-shell LED, HFLD
   Martin Brehm           : Molecular dynamics
   Dmytro Bykov           : SCF Hessian
   Vijay G. Chilkuri      : MRCI spin determinant printing, contributions to CSF-ICE
   Dipayan Datta          : RHF DLPNO-CCSD density
   Achintya Kumar Dutta   : EOM-CC, STEOM-CC
   Dmitry Ganyushin       : Spin-Orbit,Spin-Spin,Magnetic field MRCI
   Miquel Garcia          : C-PCM and meta-GGA Hessian, CC/C-PCM, Gaussian charge scheme
   Yang Guo               : DLPNO-NEVPT2, F12-NEVPT2, CIM, IAO-localization
   Andreas Hansen         : Spin unrestricted coupled pair/coupled cluster methods
   Benjamin Helmich-Paris : MC-RPA, TRAH-SCF, COSX integrals
   Lee Huntington         : MR-EOM, pCC
   Robert Izsak           : Overlap fitted RIJCOSX, COSX-SCS-MP3, EOM
   Marcus Kettner         : VPT2
   Christian Kollmar      : KDIIS, OOCD, Brueckner-CCSD(T), CCSD density, CASPT2, CASPT2-K
   Simone Kossmann        : Meta GGA functionals, TD-DFT gradient, OOMP2, MP2 Hessian
   Martin Krupicka        : Initial AUTO-CI
   Lucas Lang             : DCDCAS
   Marvin Lechner         : AUTO-CI (C++ implementation), FIC-MRCC
   Dagmar Lenk            : GEPOL surface, SMD
   Dimitrios Liakos       : Extrapolation schemes; Compound Job, initial MDCI parallelization
   Dimitrios Manganas     : Further ROCIS development; embedding schemes
   Dimitrios Pantazis     : SARC Basis sets
   Anastasios Papadopoulos: AUTO-CI, single reference methods and gradients
   Taras Petrenko         : DFT Hessian,TD-DFT gradient, ASA, ECA, R-Raman, ABS, FL, XAS/XES, NRVS
   Peter Pinski           : DLPNO-MP2, DLPNO-MP2 Gradient
   Christoph Reimann      : Effective Core Potentials
   Marius Retegan         : Local ZFS, SOC
   Christoph Riplinger    : Optimizer, TS searches, QM/MM, DLPNO-CCSD(T), (RO)-DLPNO pert. Triples
   Tobias Risthaus        : Range-separated hybrids, TD-DFT gradient, RPA, STAB
   Michael Roemelt        : Original ROCIS implementation
   Masaaki Saitow         : Open-shell DLPNO-CCSD energy and density
   Barbara Sandhoefer     : DKH picture change effects
   Avijit Sen             : IP-ROCIS
   Kantharuban Sivalingam : CASSCF convergence, NEVPT2, FIC-MRCI
   Bernardo de Souza      : ESD, SOC TD-DFT
   Georgi Stoychev        : AutoAux, RI-MP2 NMR, DLPNO-MP2 response
   Willem Van den Heuvel  : Paramagnetic NMR
   Boris Wezisla          : Elementary symmetry handling
   Frank Wennmohs         : Technical directorship


 We gratefully acknowledge several colleagues who have allowed us to
 interface, adapt or use parts of their codes:
   Stefan Grimme, W. Hujo, H. Kruse, P. Pracht,  : VdW corrections, initial TS optimization,
                  C. Bannwarth, S. Ehlert          DFT functionals, gCP, sTDA/sTD-DF
   Ed Valeev, F. Pavosevic, A. Kumar             : LibInt (2-el integral package), F12 methods
   Garnet Chan, S. Sharma, J. Yang, R. Olivares  : DMRG
   Ulf Ekstrom                                   : XCFun DFT Library
   Mihaly Kallay                                 : mrcc  (arbitrary order and MRCC methods)
   Jiri Pittner, Ondrej Demel                    : Mk-CCSD
   Frank Weinhold                                : gennbo (NPA and NBO analysis)
   Christopher J. Cramer and Donald G. Truhlar   : smd solvation model
   Lars Goerigk                                  : TD-DFT with DH, B97 family of functionals
   V. Asgeirsson, H. Jonsson                     : NEB implementation
   FAccTs GmbH                                   : IRC, NEB, NEB-TS, DLPNO-Multilevel, CI-OPT
                                                   MM, QMMM, 2- and 3-layer-ONIOM, Crystal-QMMM,
                                                   LR-CPCM, SF, NACMEs, symmetry and pop. for TD-DFT,
                                                   nearIR, NL-DFT gradient (VV10), updates on ESD,
                                                   ML-optimized integration grids
   S Lehtola, MJT Oliveira, MAL Marques          : LibXC Library
   Liviu Ungur et al                             : ANISO software


 Your calculation uses the libint2 library for the computation of 2-el integrals
 For citations please refer to: http://libint.valeyev.net

 Your ORCA version has been built with support for libXC version: 5.1.0
 For citations please refer to: https://tddft.org/programs/libxc/

 This ORCA versions uses:
   CBLAS   interface :  Fast vector & matrix operations
   LAPACKE interface :  Fast linear algebra routines
   SCALAPACK package :  Parallel linear algebra routines
   Shared memory     :  Shared parallel matrices
   BLAS/LAPACK       :  OpenBLAS 0.3.15  USE64BITINT DYNAMIC_ARCH NO_AFFINITY Haswell SINGLE_THREADED
        Core in use  :  Haswell
   Copyright (c) 2011-2014, The OpenBLAS Project




***************************************
The coordinates will be read from file: Triindenotriphenylene.xyz
***************************************


Your calculation utilizes the geometrical counterpoise correction gCP
Please cite in your paper:
H.Kruse, S. Grimme J.Chem.Phys., 136, (2012), 154101 
   

Your calculation utilizes the atom-pairwise dispersion correction
with the Becke-Johnson damping scheme (D3BJ)
Cite in your paper:
S.Grimme, S.Ehrlich, L.Goerigk, J Comput Chem, (2011), 32, 1456–1465 
S.Grimme, J.Antony, S.Ehrlich and H.Krieg, J.Chem.Phys., 132, (2010), 154104 
   

Your calculation employs the composite approach PBEh-3c.
Please cite in your paper:
S. Grimme, J. G. Brandenburg, C. Bannwarth, A. Hansen J.Chem.Phys., 143, (2015), 054107 
   

================================================================================

----- Orbital basis set information -----
Your calculation utilizes the basis: def2-mSVP

----- AuxJ basis set information -----
Your calculation utilizes the auxiliary basis: def2/J
   F. Weigend, Phys. Chem. Chem. Phys. 8, 1057 (2006).

================================================================================
                                        WARNINGS
                       Please study these warnings very carefully!
================================================================================


INFO   : the flag for use of the SHARK integral package has been found!

================================================================================
                                       INPUT FILE
================================================================================
NAME = pbeh-3c.inp
|  1> ! PBEh-3c def2/J TightSCF DefGrid3
|  2> 
|  3> %maxcore 60000
|  4> 
|  5> %pal
|  6> nprocs 4
|  7> end
|  8> 
|  9> *xyzfile 0 1 Triindenotriphenylene.xyz
| 10> 
| 11>                          ****END OF INPUT****
================================================================================

                       ****************************
                       * Single Point Calculation *
                       ****************************

---------------------------------
CARTESIAN COORDINATES (ANGSTROEM)
---------------------------------
  C     -0.434157   -1.016630   -2.061030
  C     -0.028360    0.253873   -2.393381
  C      1.145545    0.828903   -1.816610
  C      1.892321    0.074305   -0.942665
  C      1.494966   -1.248792   -0.581323
  C      0.362589   -1.779151   -1.152912
  C     -0.500766   -2.578702   -0.383356
  C     -0.142153   -2.976101    0.918052
  C      1.069180   -2.425402    1.492838
  C      1.832044   -1.503971    0.796709
  C      0.947875    2.240869   -1.610742
  C      1.653695    2.854695   -0.591166
  C      2.425891    2.074503    0.356302
  C      2.471745    0.677398    0.188033
  C     -2.358484    0.986212   -2.522993
  C     -2.764719   -0.364499   -2.184603
  C     -1.827300   -1.333229   -1.872928
  C     -1.182902   -3.600704    1.652343
  C     -2.469252   -3.641051    1.141284
  C     -2.835173   -3.002156   -0.069364
  C     -1.847582   -2.430881   -0.841759
  C      2.556530   -0.266049    1.260499
  C      2.920586    0.228804    2.494865
  C      3.126741    1.622702    2.637252
  C      2.852104    2.531471    1.629428
  C     -3.200713    2.128326   -2.494742
  C     -2.655853    3.392263   -2.341400
  C     -1.274933    3.611134   -2.114645
  C     -0.980658    1.276538   -2.550710
  C     -0.412253    2.538374   -2.188863
  H      1.234941   -2.587003    2.552332
  H      1.461009    3.891347   -0.338689
  H     -3.812810   -0.528477   -1.959062
  H     -0.989317   -3.988759    2.645367
  H     -3.248871   -4.102780    1.733869
  H     -3.882643   -2.914795   -0.330815
  H      2.986000   -0.406309    3.369450
  H      3.425656    2.000387    3.606994
  H      2.892676    3.593026    1.842551
  H     -4.277341    2.012212   -2.525295
  H     -3.323391    4.243571   -2.300299
  H     -0.935459    4.596528   -1.820816

----------------------------
CARTESIAN COORDINATES (A.U.)
----------------------------
  NO LB      ZA    FRAG     MASS         X           Y           Z
   0 C     6.0000    0    12.011   -0.820438   -1.921153   -3.894782
   1 C     6.0000    0    12.011   -0.053593    0.479751   -4.522835
   2 C     6.0000    0    12.011    2.164767    1.566400   -3.432895
   3 C     6.0000    0    12.011    3.575968    0.140417   -1.781378
   4 C     6.0000    0    12.011    2.825076   -2.359874   -1.098541
   5 C     6.0000    0    12.011    0.685193   -3.362107   -2.178688
   6 C     6.0000    0    12.011   -0.946310   -4.873040   -0.724437
   7 C     6.0000    0    12.011   -0.268631   -5.624016    1.734867
   8 C     6.0000    0    12.011    2.020457   -4.583345    2.821055
   9 C     6.0000    0    12.011    3.462062   -2.842094    1.505562
  10 C     6.0000    0    12.011    1.791224    4.234628   -3.043861
  11 C     6.0000    0    12.011    3.125030    5.394592   -1.117141
  12 C     6.0000    0    12.011    4.584270    3.920242    0.673313
  13 C     6.0000    0    12.011    4.670921    1.280097    0.355330
  14 C     6.0000    0    12.011   -4.456890    1.863670   -4.767766
  15 C     6.0000    0    12.011   -5.224562   -0.688803   -4.128301
  16 C     6.0000    0    12.011   -3.453098   -2.519438   -3.539321
  17 C     6.0000    0    12.011   -2.235360   -6.804344    3.122476
  18 C     6.0000    0    12.011   -4.666211   -6.880590    2.156715
  19 C     6.0000    0    12.011   -5.357701   -5.673252   -0.131080
  20 C     6.0000    0    12.011   -3.491424   -4.593699   -1.590695
  21 C     6.0000    0    12.011    4.831142   -0.502760    2.381998
  22 C     6.0000    0    12.011    5.519107    0.432378    4.714613
  23 C     6.0000    0    12.011    5.908684    3.066462    4.983683
  24 C     6.0000    0    12.011    5.389695    4.783786    3.079173
  25 C     6.0000    0    12.011   -6.048472    4.021953   -4.714379
  26 C     6.0000    0    12.011   -5.018835    6.410448   -4.424604
  27 C     6.0000    0    12.011   -2.409273    6.824054   -3.996099
  28 C     6.0000    0    12.011   -1.853175    2.412307   -4.820144
  29 C     6.0000    0    12.011   -0.779045    4.796831   -4.136352
  30 H     1.0000    0     1.008    2.333700   -4.888727    4.823209
  31 H     1.0000    0     1.008    2.760906    7.353580   -0.640030
  32 H     1.0000    0     1.008   -7.205167   -0.998677   -3.702092
  33 H     1.0000    0     1.008   -1.869538   -7.537663    4.999019
  34 H     1.0000    0     1.008   -6.139477   -7.753131    3.276539
  35 H     1.0000    0     1.008   -7.337132   -5.508163   -0.625151
  36 H     1.0000    0     1.008    5.642723   -0.767812    6.367337
  37 H     1.0000    0     1.008    6.473552    3.780183    6.816232
  38 H     1.0000    0     1.008    5.466364    6.789836    3.481918
  39 H     1.0000    0     1.008   -8.083003    3.802530   -4.772116
  40 H     1.0000    0     1.008   -6.280299    8.019186   -4.346936
  41 H     1.0000    0     1.008   -1.767762    8.686180   -3.440844

--------------------------------
INTERNAL COORDINATES (ANGSTROEM)
--------------------------------
 C      0   0   0     0.000000000000     0.00000000     0.00000000
 C      1   0   0     1.374520955276     0.00000000     0.00000000
 C      2   1   0     1.428768387607   121.12895011     0.00000000
 C      3   2   1     1.375089979324   118.80996684     1.73857750
 C      4   3   2     1.427951218422   121.20977013   358.35479205
 C      5   4   3     1.374871914471   118.77769503     1.77875772
 C      6   5   4     1.406015526806   119.83844571   218.28972698
 C      7   6   5     1.407192567848   120.68355360   352.34587263
 C      8   7   6     1.449474664631   118.19123460     6.41181425
 C      9   8   7     1.384048819328   120.93833526     1.85496927
 C      3   2   1     1.440521068263   109.84245525   215.50673341
 C     11   3   2     1.383654665780   118.04355002   152.37414809
 C     12  11   3     1.450063144518   120.95932275   351.70127250
 C      4   3   2     1.406388930041   119.95960078   218.39409106
 C      2   1   3     2.445934946493    90.47647235   216.51980067
 C     15   2   1     1.450501090572    88.60358280   359.45119526
 C     16  15   2     1.383594327392   120.98325661     4.45809161
 C      8   7   6     1.418614926680   114.58729099   170.74605196
 C     18   8   7     1.384740786957   120.21900163   352.61619202
 C     19  18   8     1.416953188174   122.82587260   355.77037798
 C     20  19  18     1.377782684601   118.73967367     6.74861617
 C     14   4   3     1.430896830575   110.13624718   149.16415254
 C     22  14   4     1.378795462758   116.74379157   189.25444909
 C     23  22  14     1.416235681267   118.79543428     2.71920044
 C     24  23  22     1.384555735807   122.95308447     6.60616702
 C     15   2   1     1.419356387986   143.62609538   159.94815013
 C     26  15   2     1.384891226492   120.20783633     0.00000000
 C     27  26  15     1.416426249653   122.84191123   355.50819919
 C      2   1   3     1.406224399118   119.95571016   220.13502753
 C     28  27  26     1.378600215586   118.76497822     7.04750582
 H      9   8   7     1.084490622588   117.29221930   168.64402250
 H     12  11   3     1.084213533500   120.33810139   186.12839849
 H     16  15   2     1.084551764893   117.38434975   170.51643813
 H     18   8   7     1.083586104033   120.06375213   176.78357259
 H     19  18   8     1.082661859783   118.64307774   181.47359399
 H     20  19  18     1.083135129537   119.49498082   190.90836860
 H     23  22  14     1.082841381154   121.90527763   178.41896115
 H     24  23  22     1.082773062136   118.26430971   180.82653969
 H     25  24  23     1.083498014061   119.50261150   171.16479648
 H     26  15   2     1.083301740927   120.19350001   184.14984301
 H     27  26  15     1.082599112184   118.63885648   181.39703186
 H     28  27  26     1.082857397661   119.32046158   191.30363842

---------------------------
INTERNAL COORDINATES (A.U.)
---------------------------
 C      0   0   0     0.000000000000     0.00000000     0.00000000
 C      1   0   0     2.597468170808     0.00000000     0.00000000
 C      2   1   0     2.699980961381   121.12895011     0.00000000
 C      3   2   1     2.598543470422   118.80996684     1.73857750
 C      4   3   2     2.698436735416   121.20977013   358.35479205
 C      5   4   3     2.598131387571   118.77769503     1.77875772
 C      6   5   4     2.656984285705   119.83844571   218.28972698
 C      7   6   5     2.659208570922   120.68355360   352.34587263
 C      8   7   6     2.739110154211   118.19123460     6.41181425
 C      9   8   7     2.615473224507   120.93833526     1.85496927
 C      3   2   1     2.722190309162   109.84245525   215.50673341
 C     11   3   2     2.614728382246   118.04355002   152.37414809
 C     12  11   3     2.740222220032   120.95932275   351.70127250
 C      4   3   2     2.657689915557   119.95960078   218.39409106
 C      2   1   3     4.622147190259    90.47647235   216.51980067
 C     15   2   1     2.741049818135    88.60358280   359.45119526
 C     16  15   2     2.614614359218   120.98325661     4.45809161
 C      8   7   6     2.680793700918   114.58729099   170.74605196
 C     18   8   7     2.616780853819   120.21900163   352.61619202
 C     19  18   8     2.677653470236   122.82587260   355.77037798
 C     20  19  18     2.603631945955   118.73967367     6.74861617
 C     14   4   3     2.704003135682   110.13624718   149.16415254
 C     22  14   4     2.605545819306   116.74379157   189.25444909
 C     23  22  14     2.676297578681   118.79543428     2.71920044
 C     24  23  22     2.616431157826   122.95308447     6.60616702
 C     15   2   1     2.682194859724   143.62609538   159.94815013
 C     26  15   2     2.617065143340   120.20783633     0.00000000
 C     27  26  15     2.676657700741   122.84191123   355.50819919
 C      2   1   3     2.657378997172   119.95571016   220.13502753
 C     28  27  26     2.605176855623   118.76497822     7.04750582
 H      9   8   7     2.049390271497   117.29221930   168.64402250
 H     12  11   3     2.048866649006   120.33810139   186.12839849
 H     16  15   2     2.049505813709   117.38434975   170.51643813
 H     18   8   7     2.047680979145   120.06375213   176.78357259
 H     19  18   8     2.045934410632   118.64307774   181.47359399
 H     20  19  18     2.046828760855   119.49498082   190.90836860
 H     23  22  14     2.046273656859   121.90527763   178.41896115
 H     24  23  22     2.046144552624   118.26430971   180.82653969
 H     25  24  23     2.047514513223   119.50261150   171.16479648
 H     26  15   2     2.047143610751   120.19350001   184.14984301
 H     27  26  15     2.045815834854   118.63885648   181.39703186
 H     28  27  26     2.046303923669   119.32046158   191.30363842

---------------------
BASIS SET INFORMATION
---------------------
There are 2 groups of distinct atoms

 Group   1 Type C   : 8s4p1d contracted to 4s2p1d pattern {5111/31/1}
 Group   2 Type H   : 4s contracted to 2s pattern {31}

Atom   0C    basis set group =>   1
Atom   1C    basis set group =>   1
Atom   2C    basis set group =>   1
Atom   3C    basis set group =>   1
Atom   4C    basis set group =>   1
Atom   5C    basis set group =>   1
Atom   6C    basis set group =>   1
Atom   7C    basis set group =>   1
Atom   8C    basis set group =>   1
Atom   9C    basis set group =>   1
Atom  10C    basis set group =>   1
Atom  11C    basis set group =>   1
Atom  12C    basis set group =>   1
Atom  13C    basis set group =>   1
Atom  14C    basis set group =>   1
Atom  15C    basis set group =>   1
Atom  16C    basis set group =>   1
Atom  17C    basis set group =>   1
Atom  18C    basis set group =>   1
Atom  19C    basis set group =>   1
Atom  20C    basis set group =>   1
Atom  21C    basis set group =>   1
Atom  22C    basis set group =>   1
Atom  23C    basis set group =>   1
Atom  24C    basis set group =>   1
Atom  25C    basis set group =>   1
Atom  26C    basis set group =>   1
Atom  27C    basis set group =>   1
Atom  28C    basis set group =>   1
Atom  29C    basis set group =>   1
Atom  30H    basis set group =>   2
Atom  31H    basis set group =>   2
Atom  32H    basis set group =>   2
Atom  33H    basis set group =>   2
Atom  34H    basis set group =>   2
Atom  35H    basis set group =>   2
Atom  36H    basis set group =>   2
Atom  37H    basis set group =>   2
Atom  38H    basis set group =>   2
Atom  39H    basis set group =>   2
Atom  40H    basis set group =>   2
Atom  41H    basis set group =>   2
---------------------------------
AUXILIARY/J BASIS SET INFORMATION
---------------------------------
There are 2 groups of distinct atoms

 Group   1 Type C   : 12s5p4d2f1g contracted to 6s4p3d1f1g pattern {711111/2111/211/2/1}
 Group   2 Type H   : 5s2p1d contracted to 3s1p1d pattern {311/2/1}

Atom   0C    basis set group =>   1
Atom   1C    basis set group =>   1
Atom   2C    basis set group =>   1
Atom   3C    basis set group =>   1
Atom   4C    basis set group =>   1
Atom   5C    basis set group =>   1
Atom   6C    basis set group =>   1
Atom   7C    basis set group =>   1
Atom   8C    basis set group =>   1
Atom   9C    basis set group =>   1
Atom  10C    basis set group =>   1
Atom  11C    basis set group =>   1
Atom  12C    basis set group =>   1
Atom  13C    basis set group =>   1
Atom  14C    basis set group =>   1
Atom  15C    basis set group =>   1
Atom  16C    basis set group =>   1
Atom  17C    basis set group =>   1
Atom  18C    basis set group =>   1
Atom  19C    basis set group =>   1
Atom  20C    basis set group =>   1
Atom  21C    basis set group =>   1
Atom  22C    basis set group =>   1
Atom  23C    basis set group =>   1
Atom  24C    basis set group =>   1
Atom  25C    basis set group =>   1
Atom  26C    basis set group =>   1
Atom  27C    basis set group =>   1
Atom  28C    basis set group =>   1
Atom  29C    basis set group =>   1
Atom  30H    basis set group =>   2
Atom  31H    basis set group =>   2
Atom  32H    basis set group =>   2
Atom  33H    basis set group =>   2
Atom  34H    basis set group =>   2
Atom  35H    basis set group =>   2
Atom  36H    basis set group =>   2
Atom  37H    basis set group =>   2
Atom  38H    basis set group =>   2
Atom  39H    basis set group =>   2
Atom  40H    basis set group =>   2
Atom  41H    basis set group =>   2


           ************************************************************
           *        Program running with 4 parallel MPI-processes     *
           *              working on a common directory               *
           ************************************************************
------------------------------------------------------------------------------
                           ORCA GTO INTEGRAL CALCULATION
                           -- RI-GTO INTEGRALS CHOSEN --
------------------------------------------------------------------------------
------------------------------------------------------------------------------
                   ___                                                        
                  /   \      - P O W E R E D   B Y -                         
                 /     \                                                     
                 |  |  |   _    _      __       _____    __    __             
                 |  |  |  | |  | |    /  \     |  _  \  |  |  /  |          
                  \  \/   | |  | |   /    \    | | | |  |  | /  /          
                 / \  \   | |__| |  /  /\  \   | |_| |  |  |/  /          
                |  |  |   |  __  | /  /__\  \  |    /   |      \           
                |  |  |   | |  | | |   __   |  |    \   |  |\   \          
                \     /   | |  | | |  |  |  |  | |\  \  |  | \   \       
                 \___/    |_|  |_| |__|  |__|  |_| \__\ |__|  \__/        
                                                                              
                      - O R C A' S   B I G   F R I E N D -                    
                                      &                                       
                       - I N T E G R A L  F E E D E R -                       
                                                                              
 v1 FN, 2020, v2 2021                                                         
------------------------------------------------------------------------------


Reading SHARK input file pbeh-3c.SHARKINP.tmp ... ok
----------------------
SHARK INTEGRAL PACKAGE
----------------------

Number of atoms                             ...     42
Number of basis functions                   ...    474
Number of shells                            ...    234
Maximum angular momentum                    ...      2
Integral batch strategy                     ... SHARK/LIBINT Hybrid
RI-J (if used) integral strategy            ... SPLIT-RIJ (Revised 2003 algorithm where possible)
Printlevel                                  ...      1
Contraction scheme used                     ... SEGMENTED contraction
Coulomb Range Separation                    ... NOT USED
Exchange Range Separation                   ... NOT USED
Finite Nucleus Model                        ... NOT USED
Auxiliary Coulomb fitting basis             ... AVAILABLE
   # of basis functions in Aux-J            ...   1602
   # of shells in Aux-J                     ...    510
   Maximum angular momentum in Aux-J        ...      4
Auxiliary J/K fitting basis                 ... NOT available
Auxiliary Correlation fitting basis         ... NOT available
Auxiliary 'external' fitting basis          ... NOT available
Integral threshold                          ...     2.500000e-11
Primitive cut-off                           ...     2.500000e-12
Primitive pair pre-selection threshold      ...     2.500000e-12

Calculating pre-screening integrals         ... done (  0.1 sec) Dimension = 234
Organizing shell pair data                  ... done (  0.6 sec)
Shell pair information
Total number of shell pairs                 ...     27495
Shell pairs after pre-screening             ...     18592
Total number of primitive shell pairs       ...     96567
Primitive shell pairs kept                  ...     40614
          la=0 lb=0:   5900 shell pairs
          la=1 lb=0:   6778 shell pairs
          la=1 lb=1:   1691 shell pairs
          la=2 lb=0:   2453 shell pairs
          la=2 lb=1:   1484 shell pairs
          la=2 lb=2:    286 shell pairs

Calculating one electron integrals          ... done (  0.1 sec)
Calculating RI/J V-Matrix + Cholesky decomp.... done (  2.1 sec)
Calculating Nuclear repulsion               ... done (  0.0 sec) ENN=   2617.548753988310 Eh

SHARK setup successfully completed in   4.5 seconds

Maximum memory used throughout the entire GTOINT-calculation: 38.4 MB


           ************************************************************
           *        Program running with 4 parallel MPI-processes     *
           *              working on a common directory               *
           ************************************************************
-------------------------------------------------------------------------------
                                 ORCA SCF
-------------------------------------------------------------------------------

------------
SCF SETTINGS
------------
Hamiltonian:
 Density Functional     Method          .... DFT(GTOs)
 Exchange Functional    Exchange        .... PBE
   PBE kappa parameter   XKappa         ....  1.024500
   PBE mue parameter    XMuePBE         ....  0.123457
 Correlation Functional Correlation     .... PBE
   PBE beta parameter  CBetaPBE         ....  0.030000
 LDA part of GGA corr.  LDAOpt          .... PW91-LDA
 Gradients option       PostSCFGGA      .... off
 Hybrid DFT is turned on
   Fraction HF Exchange ScalHFX         ....  0.420000
   Scaling of DF-GGA-X  ScalDFX         ....  0.580000
   Scaling of DF-GGA-C  ScalDFC         ....  1.000000
   Scaling of DF-LDA-C  ScalLDAC        ....  1.000000
   Perturbative correction              ....  0.000000
   Density functional embedding theory  .... OFF
 RI-approximation to the Coulomb term is turned on
   Number of AuxJ basis functions       .... 1602
   RIJ-ON(X) (HFX calculated with O(N)) .... on
   Number of AuxJ basis functions       .... 1602
   RIJ-COSX (HFX calculated with COS-X)).... on


General Settings:
 Integral files         IntName         .... pbeh-3c
 Hartree-Fock type      HFTyp           .... RHF
 Total Charge           Charge          ....    0
 Multiplicity           Mult            ....    1
 Number of Electrons    NEL             ....  192
 Basis Dimension        Dim             ....  474
 Nuclear Repulsion      ENuc            ....   2617.5487539883 Eh

Convergence Acceleration:
 DIIS                   CNVDIIS         .... on
   Start iteration      DIISMaxIt       ....    12
   Startup error        DIISStart       ....  0.200000
   # of expansion vecs  DIISMaxEq       ....     5
   Bias factor          DIISBfac        ....   1.050
   Max. coefficient     DIISMaxC        ....  10.000
 Trust-Rad. Augm. Hess. CNVTRAH         .... auto
   Auto Start mean grad. ratio tolernc. ....  1.125000
   Auto Start start iteration           ....    20
   Auto Start num. interpolation iter.  ....    10
   Max. Number of Micro iterations      ....    16
   Max. Number of Macro iterations      .... Maxiter - #DIIS iter
   Number of Davidson start vectors     ....     2
   Converg. threshold I  (grad. norm)   ....   1.000e-05
   Converg. threshold II (energy diff.) ....   1.000e-08
   Grad. Scal. Fac. for Micro threshold ....   0.100
   Minimum threshold for Micro iter.    ....   0.010
   NR start threshold (gradient norm)   ....   0.001
   Initial trust radius                 ....   0.400
   Minimum AH scaling param. (alpha)    ....   1.000
   Maximum AH scaling param. (alpha)    .... 1000.000
   Orbital update algorithm             .... Taylor
   White noise on init. David. guess    .... on
   Maximum white noise                  ....   0.010
   Quad. conv. algorithm                .... NR
   COSX micro iterations for RIJONX calc.... off
 SOSCF                  CNVSOSCF        .... on
   Start iteration      SOSCFMaxIt      ....   150
   Startup grad/error   SOSCFStart      ....  0.003300
 Level Shifting         CNVShift        .... on
   Level shift para.    LevelShift      ....    0.2500
   Turn off err/grad.   ShiftErr        ....    0.0010
 Zerner damping         CNVZerner       .... off
 Static damping         CNVDamp         .... on
   Fraction old density DampFac         ....    0.7000
   Max. Damping (<1)    DampMax         ....    0.9800
   Min. Damping (>=0)   DampMin         ....    0.0000
   Turn off err/grad.   DampErr         ....    0.1000
 Fernandez-Rico         CNVRico         .... off

SCF Procedure:
 Maximum # iterations   MaxIter         ....   125
 SCF integral mode      SCFMode         .... Direct
   Integral package                     .... SHARK and LIBINT hybrid scheme
 Reset frequency        DirectResetFreq ....    20
 Integral Threshold     Thresh          ....  2.500e-11 Eh
 Primitive CutOff       TCut            ....  2.500e-12 Eh

Convergence Tolerance:
 Convergence Check Mode ConvCheckMode   .... Total+1el-Energy
 Convergence forced     ConvForced      .... 0
 Energy Change          TolE            ....  1.000e-08 Eh
 1-El. energy change                    ....  1.000e-05 Eh
 Orbital Gradient       TolG            ....  1.000e-05
 Orbital Rotation angle TolX            ....  1.000e-05
 DIIS Error             TolErr          ....  5.000e-07


Diagonalization of the overlap matrix:
Smallest eigenvalue                        ... 2.173e-04
Time for diagonalization                   ...    0.104 sec
Threshold for overlap eigenvalues          ... 1.000e-08
Number of eigenvalues below threshold      ... 0
Time for construction of square roots      ...    0.114 sec
Total time needed                          ...    0.220 sec

--------------------------------
INITIAL GUESS: MINIMAL BASIS EHT
--------------------------------
The minimal basis has 162 functions
EHT matrix was diagonalized
Basis set overlap was calculated now projecting the orbitals
Using GuessMode=FMatrix for the initial guess
C*T matrix was formed
Effective Fockian was calculated
Effective Fockian was diagonalized
Initial density was built
                      ------------------
                      INITIAL GUESS DONE
                      ------------------
-------------------
DFT GRID GENERATION
-------------------

General Integration Accuracy     IntAcc      ... 4.959
Radial Grid Type                 RadialGrid  ... OptM3 with GC (2021)
Angular Grid (max. ang.)         AngularGrid ... 6 (Lebedev-590)
Angular grid pruning method      GridPruning ... 4 (adaptive)
Weight generation scheme         WeightScheme... Becke
Basis function cutoff            BFCut       ... 1.0000e-11
Integration weight cutoff        WCut        ... 1.0000e-14
Angular grids for H and He will be reduced by one unit
Partially contracted basis set               ... off
Rotationally invariant grid construction     ... off

Total number of grid points                  ...   522762
Total number of batches                      ...     8191
Average number of points per batch           ...       63
Average number of grid points per atom       ...    12447
Time for grid setup =   12.815 sec

--------------------
COSX GRID GENERATION
--------------------

GRIDX 1
-------
General Integration Accuracy     IntAcc      ... 4.020
Radial Grid Type                 RadialGrid  ... OptM3 with GC (2021)
Angular Grid (max. ang.)         AngularGrid ... 2 (Lebedev-110)
Angular grid pruning method      GridPruning ... 4 (adaptive)
Weight generation scheme         WeightScheme... Becke
Basis function cutoff            BFCut       ... 1.0000e-11
Integration weight cutoff        WCut        ... 1.0000e-14
Angular grids for H and He will be reduced by one unit
Partially contracted basis set               ... on
Rotationally invariant grid construction     ... off

Total number of grid points                  ...    60606
Total number of batches                      ...      972
Average number of points per batch           ...       62
Average number of grid points per atom       ...     1443
UseSFitting                                  ... on

GRIDX 2
-------
General Integration Accuracy     IntAcc      ... 4.338
Radial Grid Type                 RadialGrid  ... OptM3 with GC (2021)
Angular Grid (max. ang.)         AngularGrid ... 3 (Lebedev-194)
Angular grid pruning method      GridPruning ... 4 (adaptive)
Weight generation scheme         WeightScheme... Becke
Basis function cutoff            BFCut       ... 1.0000e-11
Integration weight cutoff        WCut        ... 1.0000e-14
Angular grids for H and He will be reduced by one unit
Partially contracted basis set               ... on
Rotationally invariant grid construction     ... off

Total number of grid points                  ...   132896
Total number of batches                      ...     2097
Average number of points per batch           ...       63
Average number of grid points per atom       ...     3164
UseSFitting                                  ... on

GRIDX 3
-------
General Integration Accuracy     IntAcc      ... 4.871
Radial Grid Type                 RadialGrid  ... OptM3 with GC (2021)
Angular Grid (max. ang.)         AngularGrid ... 4 (Lebedev-302)
Angular grid pruning method      GridPruning ... 4 (adaptive)
Weight generation scheme         WeightScheme... Becke
Basis function cutoff            BFCut       ... 1.0000e-11
Integration weight cutoff        WCut        ... 1.0000e-14
Angular grids for H and He will be reduced by one unit
Partially contracted basis set               ... on
Rotationally invariant grid construction     ... off

Total number of grid points                  ...   241161
Total number of batches                      ...     3789
Average number of points per batch           ...       63
Average number of grid points per atom       ...     5742
UseSFitting                                  ... on

Time for X-Grid setup             =   10.812 sec

--------------
SCF ITERATIONS
--------------
ITER       Energy         Delta-E        Max-DP      RMS-DP      [F,P]     Damp
               ***  Starting incremental Fock matrix formation  ***
  0  -1145.0123344669   0.000000000000 0.14404576  0.00339333  0.4598108 0.7000
  1  -1145.8354735754  -0.823139108554 0.11038273  0.00249013  0.3255261 0.7000
                      *** Initiating the SOSCF procedure ***
                      *** Re-Reading the Fockian *** 
                      *** Removing any level shift *** 
ITER      Energy       Delta-E        Grad      Rot      Max-DP    RMS-DP
  2  -1146.42603163  -0.5905580517  0.003165  0.003165  0.276149  0.006083
               *** Restarting incremental Fock matrix formation ***
  3  -1147.85290896  -1.4268773364  0.006262  0.013971  0.032525  0.000883
  4  -1147.85984372  -0.0069347539  0.006212  0.014714  0.014331  0.000355
  5  -1147.86080138  -0.0009576662  0.004618  0.007190  0.006790  0.000271
  6  -1147.86219898  -0.0013975917  0.000920  0.001706  0.002198  0.000085
  7  -1147.86225562  -0.0000566399  0.000641  0.001152  0.001466  0.000039
  8  -1147.86232008  -0.0000644670  0.000164  0.000410  0.000438  0.000018
  9  -1147.86232105  -0.0000009685  0.000163  0.000225  0.000245  0.000009
 10  -1147.86232426  -0.0000032109  0.000025  0.000064  0.000077  0.000002
 11  -1147.86232424   0.0000000174  0.000025  0.000032  0.000041  0.000001
                  ***Gradient check signals convergence***
              ***Rediagonalizing the Fockian in SOSCF/NRSCF***

               *****************************************************
               *                     SUCCESS                       *
               *           SCF CONVERGED AFTER  12 CYCLES          *
               *****************************************************

Old exchange energy                            =    -67.135105016 Eh
New exchange energy                            =    -67.135101985 Eh
Exchange energy change after final integration =      0.000003032 Eh
Total energy after final integration           =  -1147.862321286 Eh
Final COS-X integration done in                =    64.434 sec

----------------
TOTAL SCF ENERGY
----------------

Total Energy       :        -1147.86232129 Eh          -31234.92171 eV

Components:
Nuclear Repulsion  :         2617.54875399 Eh           71227.12271 eV
Electronic Energy  :        -3765.41107527 Eh         -102462.04443 eV
One Electron Energy:        -6756.63998371 Eh         -183857.52109 eV
Two Electron Energy:         2991.22890844 Eh           81395.47666 eV
Max COSX asymmetry :            0.00000202 Eh               0.00005 eV

Virial components:
Potential Energy   :        -2286.44825380 Eh          -62217.42006 eV
Kinetic Energy     :         1138.58593251 Eh           30982.49834 eV
Virial Ratio       :            2.00814729


DFT components:
N(Alpha)           :       96.000009971202 electrons
N(Beta)            :       96.000009971202 electrons
N(Total)           :      192.000019942403 electrons
E(X)               :      -89.224658554677 Eh       
E(C)               :       -8.476839024009 Eh       
E(XC)              :      -97.701497578686 Eh       
DFET-embed. en.    :        0.000000000000 Eh       

---------------
SCF CONVERGENCE
---------------

  Last Energy change         ...   -7.4152e-08  Tolerance :   1.0000e-08
  Last MAX-Density change    ...    1.5543e-15  Tolerance :   1.0000e-07
  Last RMS-Density change    ...    2.9661e-17  Tolerance :   5.0000e-09
  Last Orbital Gradient      ...    1.8645e-06  Tolerance :   1.0000e-05
  Last Orbital Rotation      ...    6.2914e-06  Tolerance :   1.0000e-05

             **** THE GBW FILE WAS UPDATED (pbeh-3c.gbw) ****
             **** DENSITY pbeh-3c.scfp WAS UPDATED ****
             **** ENERGY FILE WAS UPDATED (pbeh-3c.en.tmp) ****
             **** THE GBW FILE WAS UPDATED (pbeh-3c.gbw) ****
             **** DENSITY pbeh-3c.scfp WAS UPDATED ****
----------------
ORBITAL ENERGIES
----------------

  NO   OCC          E(Eh)            E(eV) 
   0   2.0000     -10.481453      -285.2148 
   1   2.0000     -10.481316      -285.2111 
   2   2.0000     -10.481169      -285.2071 
   3   2.0000     -10.477856      -285.1170 
   4   2.0000     -10.477647      -285.1113 
   5   2.0000     -10.477638      -285.1110 
   6   2.0000     -10.476874      -285.0902 
   7   2.0000     -10.476873      -285.0902 
   8   2.0000     -10.476662      -285.0845 
   9   2.0000     -10.476612      -285.0831 
  10   2.0000     -10.476555      -285.0815 
  11   2.0000     -10.476298      -285.0746 
  12   2.0000     -10.467934      -284.8470 
  13   2.0000     -10.467866      -284.8451 
  14   2.0000     -10.467833      -284.8442 
  15   2.0000     -10.466169      -284.7989 
  16   2.0000     -10.466088      -284.7967 
  17   2.0000     -10.466065      -284.7961 
  18   2.0000     -10.464602      -284.7563 
  19   2.0000     -10.464589      -284.7559 
  20   2.0000     -10.464461      -284.7524 
  21   2.0000     -10.462171      -284.6901 
  22   2.0000     -10.462141      -284.6893 
  23   2.0000     -10.462097      -284.6881 
  24   2.0000     -10.461554      -284.6734 
  25   2.0000     -10.461492      -284.6717 
  26   2.0000     -10.461358      -284.6680 
  27   2.0000     -10.461282      -284.6660 
  28   2.0000     -10.461261      -284.6654 
  29   2.0000     -10.461108      -284.6612 
  30   2.0000      -1.044231       -28.4150 
  31   2.0000      -1.003477       -27.3060 
  32   2.0000      -1.003297       -27.3011 
  33   2.0000      -0.953056       -25.9340 
  34   2.0000      -0.944822       -25.7099 
  35   2.0000      -0.944699       -25.7066 
  36   2.0000      -0.900191       -24.4954 
  37   2.0000      -0.900178       -24.4951 
  38   2.0000      -0.884984       -24.0816 
  39   2.0000      -0.867327       -23.6012 
  40   2.0000      -0.829563       -22.5736 
  41   2.0000      -0.829502       -22.5719 
  42   2.0000      -0.821664       -22.3586 
  43   2.0000      -0.810581       -22.0570 
  44   2.0000      -0.810531       -22.0557 
  45   2.0000      -0.750905       -20.4332 
  46   2.0000      -0.732584       -19.9346 
  47   2.0000      -0.732461       -19.9313 
  48   2.0000      -0.701194       -19.0805 
  49   2.0000      -0.700697       -19.0669 
  50   2.0000      -0.700574       -19.0636 
  51   2.0000      -0.655927       -17.8487 
  52   2.0000      -0.655754       -17.8440 
  53   2.0000      -0.634963       -17.2782 
  54   2.0000      -0.610432       -16.6107 
  55   2.0000      -0.610356       -16.6086 
  56   2.0000      -0.606585       -16.5060 
  57   2.0000      -0.585346       -15.9281 
  58   2.0000      -0.561213       -15.2714 
  59   2.0000      -0.561201       -15.2711 
  60   2.0000      -0.542268       -14.7559 
  61   2.0000      -0.542153       -14.7527 
  62   2.0000      -0.533329       -14.5126 
  63   2.0000      -0.530244       -14.4287 
  64   2.0000      -0.514742       -14.0068 
  65   2.0000      -0.514705       -14.0058 
  66   2.0000      -0.509829       -13.8732 
  67   2.0000      -0.489425       -13.3179 
  68   2.0000      -0.489338       -13.3156 
  69   2.0000      -0.487290       -13.2598 
  70   2.0000      -0.479523       -13.0485 
  71   2.0000      -0.474977       -12.9248 
  72   2.0000      -0.474816       -12.9204 
  73   2.0000      -0.466083       -12.6828 
  74   2.0000      -0.465875       -12.6771 
  75   2.0000      -0.457266       -12.4428 
  76   2.0000      -0.439133       -11.9494 
  77   2.0000      -0.439049       -11.9471 
  78   2.0000      -0.421187       -11.4611 
  79   2.0000      -0.416678       -11.3384 
  80   2.0000      -0.409420       -11.1409 
  81   2.0000      -0.405025       -11.0213 
  82   2.0000      -0.404774       -11.0145 
  83   2.0000      -0.399133       -10.8610 
  84   2.0000      -0.399045       -10.8586 
  85   2.0000      -0.383080       -10.4241 
  86   2.0000      -0.383007       -10.4222 
  87   2.0000      -0.346040        -9.4162 
  88   2.0000      -0.345922        -9.4130 
  89   2.0000      -0.334135        -9.0923 
  90   2.0000      -0.317008        -8.6262 
  91   2.0000      -0.271116        -7.3774 
  92   2.0000      -0.271065        -7.3760 
  93   2.0000      -0.266231        -7.2445 
  94   2.0000      -0.250830        -6.8254 
  95   2.0000      -0.250773        -6.8239 
  96   0.0000      -0.063460        -1.7268 
  97   0.0000      -0.059559        -1.6207 
  98   0.0000      -0.059361        -1.6153 
  99   0.0000       0.004303         0.1171 
 100   0.0000       0.004376         0.1191 
 101   0.0000       0.007438         0.2024 
 102   0.0000       0.041250         1.1225 
 103   0.0000       0.041468         1.1284 
 104   0.0000       0.074331         2.0227 
 105   0.0000       0.097078         2.6416 
 106   0.0000       0.097277         2.6470 
 107   0.0000       0.139916         3.8073 
 108   0.0000       0.143185         3.8963 
 109   0.0000       0.143199         3.8966 
 110   0.0000       0.146654         3.9907 
 111   0.0000       0.157236         4.2786 
 112   0.0000       0.157544         4.2870 
 113   0.0000       0.176120         4.7925 
 114   0.0000       0.190163         5.1746 
 115   0.0000       0.190235         5.1766 
 116   0.0000       0.194620         5.2959 
 117   0.0000       0.194900         5.3035 
 118   0.0000       0.196562         5.3487 
 119   0.0000       0.208368         5.6700 
 120   0.0000       0.211850         5.7647 
 121   0.0000       0.218690         5.9508 
 122   0.0000       0.218907         5.9568 
 123   0.0000       0.243032         6.6132 
 124   0.0000       0.247810         6.7432 
 125   0.0000       0.248185         6.7535 
 126   0.0000       0.271901         7.3988 
 127   0.0000       0.276498         7.5239 
 128   0.0000       0.276669         7.5285 
 129   0.0000       0.290323         7.9001 
 130   0.0000       0.295451         8.0396 
 131   0.0000       0.295607         8.0439 
 132   0.0000       0.299297         8.1443 
 133   0.0000       0.302210         8.2235 
 134   0.0000       0.302626         8.2349 
 135   0.0000       0.317391         8.6366 
 136   0.0000       0.317530         8.6404 
 137   0.0000       0.332549         9.0491 
 138   0.0000       0.355486         9.6733 
 139   0.0000       0.355759         9.6807 
 140   0.0000       0.359788         9.7903 
 141   0.0000       0.385526        10.4907 
 142   0.0000       0.395157        10.7528 
 143   0.0000       0.395675        10.7669 
 144   0.0000       0.422022        11.4838 
 145   0.0000       0.422096        11.4858 
 146   0.0000       0.459294        12.4980 
 147   0.0000       0.475732        12.9453 
 148   0.0000       0.479359        13.0440 
 149   0.0000       0.479892        13.0585 
 150   0.0000       0.494028        13.4432 
 151   0.0000       0.494406        13.4535 
 152   0.0000       0.499766        13.5993 
 153   0.0000       0.507041        13.7973 
 154   0.0000       0.507585        13.8121 
 155   0.0000       0.514934        14.0121 
 156   0.0000       0.530600        14.4384 
 157   0.0000       0.530851        14.4452 
 158   0.0000       0.531050        14.4506 
 159   0.0000       0.532049        14.4778 
 160   0.0000       0.532325        14.4853 
 161   0.0000       0.538408        14.6508 
 162   0.0000       0.545777        14.8514 
 163   0.0000       0.546285        14.8652 
 164   0.0000       0.549610        14.9556 
 165   0.0000       0.549755        14.9596 
 166   0.0000       0.553887        15.0720 
 167   0.0000       0.566104        15.4045 
 168   0.0000       0.571906        15.5624 
 169   0.0000       0.572554        15.5800 
 170   0.0000       0.577156        15.7052 
 171   0.0000       0.581101        15.8126 
 172   0.0000       0.581489        15.8231 
 173   0.0000       0.582891        15.8613 
 174   0.0000       0.588783        16.0216 
 175   0.0000       0.590798        16.0764 
 176   0.0000       0.591124        16.0853 
 177   0.0000       0.598637        16.2898 
 178   0.0000       0.603113        16.4115 
 179   0.0000       0.603430        16.4202 
 180   0.0000       0.610617        16.6157 
 181   0.0000       0.610932        16.6243 
 182   0.0000       0.611253        16.6330 
 183   0.0000       0.615106        16.7379 
 184   0.0000       0.627474        17.0744 
 185   0.0000       0.634742        17.2722 
 186   0.0000       0.635053        17.2807 
 187   0.0000       0.641824        17.4649 
 188   0.0000       0.641931        17.4678 
 189   0.0000       0.645203        17.5569 
 190   0.0000       0.645402        17.5623 
 191   0.0000       0.645536        17.5659 
 192   0.0000       0.667027        18.1507 
 193   0.0000       0.667306        18.1583 
 194   0.0000       0.668125        18.1806 
 195   0.0000       0.680622        18.5207 
 196   0.0000       0.680947        18.5295 
 197   0.0000       0.687577        18.7099 
 198   0.0000       0.688295        18.7295 
 199   0.0000       0.688476        18.7344 
 200   0.0000       0.695110        18.9149 
 201   0.0000       0.698969        19.0199 
 202   0.0000       0.715614        19.4728 
 203   0.0000       0.716012        19.4837 
 204   0.0000       0.722984        19.6734 
 205   0.0000       0.723065        19.6756 
 206   0.0000       0.723590        19.6899 
 207   0.0000       0.729227        19.8433 
 208   0.0000       0.729774        19.8581 
 209   0.0000       0.745483        20.2856 
 210   0.0000       0.757265        20.6062 
 211   0.0000       0.757542        20.6138 
 212   0.0000       0.765580        20.8325 
 213   0.0000       0.776696        21.1350 
 214   0.0000       0.801212        21.8021 
 215   0.0000       0.808297        21.9949 
 216   0.0000       0.818334        22.2680 
 217   0.0000       0.819484        22.2993 
 218   0.0000       0.838896        22.8275 
 219   0.0000       0.839941        22.8559 
 220   0.0000       0.868737        23.6395 
 221   0.0000       0.869584        23.6626 
 222   0.0000       0.892676        24.2910 
 223   0.0000       0.900967        24.5166 
 224   0.0000       0.901799        24.5392 
 225   0.0000       0.910775        24.7834 
 226   0.0000       0.918657        24.9979 
 227   0.0000       0.919525        25.0215 
 228   0.0000       0.937435        25.5089 
 229   0.0000       0.938408        25.5354 
 230   0.0000       0.941397        25.6167 
 231   0.0000       0.955310        25.9953 
 232   0.0000       0.964393        26.2425 
 233   0.0000       0.966836        26.3090 
 234   0.0000       0.967021        26.3140 
 235   0.0000       0.972511        26.4634 
 236   0.0000       0.975795        26.5527 
 237   0.0000       0.976220        26.5643 
 238   0.0000       0.980820        26.6895 
 239   0.0000       0.981610        26.7110 
 240   0.0000       0.982136        26.7253 
 241   0.0000       1.002378        27.2761 
 242   0.0000       1.003304        27.3013 
 243   0.0000       1.005386        27.3579 
 244   0.0000       1.014133        27.5960 
 245   0.0000       1.014837        27.6151 
 246   0.0000       1.030611        28.0443 
 247   0.0000       1.030677        28.0462 
 248   0.0000       1.040001        28.2999 
 249   0.0000       1.053209        28.6593 
 250   0.0000       1.058396        28.8004 
 251   0.0000       1.058679        28.8081 
 252   0.0000       1.072383        29.1810 
 253   0.0000       1.073930        29.2231 
 254   0.0000       1.074130        29.2286 
 255   0.0000       1.076701        29.2985 
 256   0.0000       1.091588        29.7036 
 257   0.0000       1.092107        29.7177 
 258   0.0000       1.095194        29.8017 
 259   0.0000       1.107905        30.1476 
 260   0.0000       1.108328        30.1591 
 261   0.0000       1.123964        30.5846 
 262   0.0000       1.124097        30.5882 
 263   0.0000       1.148626        31.2557 
 264   0.0000       1.160620        31.5821 
 265   0.0000       1.161552        31.6074 
 266   0.0000       1.172778        31.9129 
 267   0.0000       1.173536        31.9335 
 268   0.0000       1.188088        32.3295 
 269   0.0000       1.196936        32.5703 
 270   0.0000       1.217013        33.1166 
 271   0.0000       1.232394        33.5351 
 272   0.0000       1.233758        33.5723 
 273   0.0000       1.234832        33.6015 
 274   0.0000       1.248711        33.9791 
 275   0.0000       1.261805        34.3355 
 276   0.0000       1.280809        34.8526 
 277   0.0000       1.281384        34.8682 
 278   0.0000       1.294982        35.2382 
 279   0.0000       1.296585        35.2819 
 280   0.0000       1.322838        35.9963 
 281   0.0000       1.324562        36.0432 
 282   0.0000       1.355899        36.8959 
 283   0.0000       1.373219        37.3672 
 284   0.0000       1.375222        37.4217 
 285   0.0000       1.379680        37.5430 
 286   0.0000       1.403654        38.1954 
 287   0.0000       1.405060        38.2336 
 288   0.0000       1.424280        38.7566 
 289   0.0000       1.431716        38.9590 
 290   0.0000       1.433674        39.0122 
 291   0.0000       1.472719        40.0747 
 292   0.0000       1.473235        40.0888 
 293   0.0000       1.483375        40.3647 
 294   0.0000       1.496702        40.7273 
 295   0.0000       1.506855        41.0036 
 296   0.0000       1.507565        41.0229 
 297   0.0000       1.517382        41.2901 
 298   0.0000       1.522520        41.4299 
 299   0.0000       1.523497        41.4565 
 300   0.0000       1.534715        41.7617 
 301   0.0000       1.544467        42.0271 
 302   0.0000       1.544776        42.0355 
 303   0.0000       1.563267        42.5387 
 304   0.0000       1.564264        42.5658 
 305   0.0000       1.569872        42.7184 
 306   0.0000       1.598164        43.4882 
 307   0.0000       1.598757        43.5044 
 308   0.0000       1.600103        43.5410 
 309   0.0000       1.632203        44.4145 
 310   0.0000       1.663433        45.2643 
 311   0.0000       1.664208        45.2854 
 312   0.0000       1.696941        46.1761 
 313   0.0000       1.714339        46.6495 
 314   0.0000       1.715557        46.6827 
 315   0.0000       1.731038        47.1039 
 316   0.0000       1.752500        47.6880 
 317   0.0000       1.770001        48.1642 
 318   0.0000       1.771881        48.2153 
 319   0.0000       1.772245        48.2252 
 320   0.0000       1.800322        48.9893 
 321   0.0000       1.806257        49.1507 
 322   0.0000       1.806900        49.1683 
 323   0.0000       1.824313        49.6421 
 324   0.0000       1.824904        49.6582 
 325   0.0000       1.833779        49.8997 
 326   0.0000       1.848210        50.2924 
 327   0.0000       1.848629        50.3038 
 328   0.0000       1.849093        50.3164 
 329   0.0000       1.855950        50.5030 
 330   0.0000       1.856201        50.5098 
 331   0.0000       1.869062        50.8598 
 332   0.0000       1.880427        51.1690 
 333   0.0000       1.880731        51.1773 
 334   0.0000       1.921896        52.2975 
 335   0.0000       1.930306        52.5263 
 336   0.0000       1.930817        52.5402 
 337   0.0000       1.954118        53.1742 
 338   0.0000       1.954353        53.1806 
 339   0.0000       1.959326        53.3160 
 340   0.0000       1.991320        54.1866 
 341   0.0000       1.991781        54.1991 
 342   0.0000       2.009673        54.6860 
 343   0.0000       2.024097        55.0785 
 344   0.0000       2.024508        55.0897 
 345   0.0000       2.028915        55.2096 
 346   0.0000       2.053130        55.8685 
 347   0.0000       2.053811        55.8870 
 348   0.0000       2.063743        56.1573 
 349   0.0000       2.075448        56.4758 
 350   0.0000       2.078582        56.5611 
 351   0.0000       2.079562        56.5878 
 352   0.0000       2.092797        56.9479 
 353   0.0000       2.093233        56.9598 
 354   0.0000       2.115727        57.5719 
 355   0.0000       2.123501        57.7834 
 356   0.0000       2.124314        57.8055 
 357   0.0000       2.141512        58.2735 
 358   0.0000       2.155482        58.6536 
 359   0.0000       2.155783        58.6618 
 360   0.0000       2.182394        59.3860 
 361   0.0000       2.184835        59.4524 
 362   0.0000       2.185214        59.4627 
 363   0.0000       2.202220        59.9254 
 364   0.0000       2.202757        59.9401 
 365   0.0000       2.214499        60.2596 
 366   0.0000       2.228862        60.6504 
 367   0.0000       2.247269        61.1513 
 368   0.0000       2.247913        61.1688 
 369   0.0000       2.251370        61.2629 
 370   0.0000       2.265033        61.6347 
 371   0.0000       2.265283        61.6415 
 372   0.0000       2.296733        62.4973 
 373   0.0000       2.297234        62.5109 
 374   0.0000       2.297446        62.5167 
 375   0.0000       2.318974        63.1025 
 376   0.0000       2.319547        63.1181 
 377   0.0000       2.322466        63.1975 
 378   0.0000       2.346134        63.8415 
 379   0.0000       2.348129        63.8958 
 380   0.0000       2.348389        63.9029 
 381   0.0000       2.372283        64.5531 
 382   0.0000       2.405274        65.4508 
 383   0.0000       2.405670        65.4616 
 384   0.0000       2.416567        65.7581 
 385   0.0000       2.416870        65.7664 
 386   0.0000       2.421247        65.8855 
 387   0.0000       2.474693        67.3398 
 388   0.0000       2.475686        67.3668 
 389   0.0000       2.497577        67.9625 
 390   0.0000       2.525786        68.7301 
 391   0.0000       2.532475        68.9121 
 392   0.0000       2.533425        68.9380 
 393   0.0000       2.575667        70.0875 
 394   0.0000       2.576036        70.0975 
 395   0.0000       2.592793        70.5535 
 396   0.0000       2.593121        70.5624 
 397   0.0000       2.593601        70.5755 
 398   0.0000       2.626275        71.4646 
 399   0.0000       2.626671        71.4753 
 400   0.0000       2.637049        71.7578 
 401   0.0000       2.647008        72.0287 
 402   0.0000       2.647546        72.0434 
 403   0.0000       2.689142        73.1753 
 404   0.0000       2.689591        73.1875 
 405   0.0000       2.698760        73.4370 
 406   0.0000       2.699015        73.4439 
 407   0.0000       2.712623        73.8142 
 408   0.0000       2.721567        74.0576 
 409   0.0000       2.726594        74.1944 
 410   0.0000       2.726807        74.2002 
 411   0.0000       2.756822        75.0169 
 412   0.0000       2.773302        75.4654 
 413   0.0000       2.776399        75.5497 
 414   0.0000       2.776867        75.5624 
 415   0.0000       2.813224        76.5517 
 416   0.0000       2.814059        76.5744 
 417   0.0000       2.815384        76.6105 
 418   0.0000       2.835482        77.1574 
 419   0.0000       2.836151        77.1756 
 420   0.0000       2.841657        77.3254 
 421   0.0000       2.862909        77.9037 
 422   0.0000       2.881370        78.4061 
 423   0.0000       2.881536        78.4106 
 424   0.0000       2.884777        78.4988 
 425   0.0000       2.920247        79.4640 
 426   0.0000       2.920843        79.4802 
 427   0.0000       2.946815        80.1869 
 428   0.0000       2.986433        81.2650 
 429   0.0000       2.987240        81.2869 
 430   0.0000       3.022846        82.2558 
 431   0.0000       3.027244        82.3755 
 432   0.0000       3.055646        83.1484 
 433   0.0000       3.056322        83.1668 
 434   0.0000       3.192351        86.8683 
 435   0.0000       3.201781        87.1249 
 436   0.0000       3.202520        87.1450 
 437   0.0000       3.338452        90.8439 
 438   0.0000       3.403333        92.6094 
 439   0.0000       3.403378        92.6106 
 440   0.0000       3.497056        95.1597 
 441   0.0000       3.497549        95.1731 
 442   0.0000       3.523025        95.8664 
 443   0.0000       3.679216       100.1165 
 444   0.0000      13.066337       355.5531 
 445   0.0000      13.249672       360.5419 
 446   0.0000      13.250085       360.5531 
 447   0.0000      13.442169       365.7800 
 448   0.0000      13.506584       367.5328 
 449   0.0000      13.506845       367.5399 
 450   0.0000      13.677397       372.1809 
 451   0.0000      13.677840       372.1929 
 452   0.0000      13.705178       372.9369 
 453   0.0000      13.754404       374.2764 
 454   0.0000      13.889718       377.9584 
 455   0.0000      13.889944       377.9646 
 456   0.0000      13.951410       379.6372 
 457   0.0000      13.955293       379.7428 
 458   0.0000      13.956390       379.7727 
 459   0.0000      14.076810       383.0495 
 460   0.0000      14.135063       384.6346 
 461   0.0000      14.135618       384.6497 
 462   0.0000      14.167494       385.5171 
 463   0.0000      14.210401       386.6847 
 464   0.0000      14.210780       386.6950 
 465   0.0000      14.280821       388.6009 
 466   0.0000      14.281542       388.6205 
 467   0.0000      14.364203       390.8698 
 468   0.0000      14.444233       393.0476 
 469   0.0000      14.444646       393.0588 
 470   0.0000      14.476711       393.9313 
 471   0.0000      14.541946       395.7065 
 472   0.0000      14.543370       395.7452 
 473   0.0000      14.640274       398.3821 

                    ********************************
                    * MULLIKEN POPULATION ANALYSIS *
                    ********************************

-----------------------
MULLIKEN ATOMIC CHARGES
-----------------------
   0 C :   -0.045556
   1 C :    0.045344
   2 C :   -0.044312
   3 C :    0.046199
   4 C :   -0.045427
   5 C :    0.045600
   6 C :   -0.025006
   7 C :    0.151955
   8 C :   -0.374076
   9 C :    0.091264
  10 C :    0.090080
  11 C :   -0.372710
  12 C :    0.150210
  13 C :   -0.024139
  14 C :    0.150654
  15 C :   -0.373461
  16 C :    0.090953
  17 C :   -0.298466
  18 C :   -0.199965
  19 C :   -0.334051
  20 C :    0.103380
  21 C :    0.101333
  22 C :   -0.333861
  23 C :   -0.199399
  24 C :   -0.298247
  25 C :   -0.299135
  26 C :   -0.198908
  27 C :   -0.334198
  28 C :   -0.024643
  29 C :    0.102590
  30 H :    0.216565
  31 H :    0.216341
  32 H :    0.216143
  33 H :    0.223649
  34 H :    0.226719
  35 H :    0.218567
  36 H :    0.218526
  37 H :    0.226706
  38 H :    0.223663
  39 H :    0.223739
  40 H :    0.226821
  41 H :    0.218560
Sum of atomic charges:    0.0000000

--------------------------------
MULLIKEN REDUCED ORBITAL CHARGES
--------------------------------
  0 C s       :     3.233864  s :     3.233864
      pz      :     0.948693  p :     2.762640
      px      :     0.893906
      py      :     0.920042
      dz2     :     0.007143  d :     0.049052
      dxz     :     0.009012
      dyz     :     0.007981
      dx2y2   :     0.012806
      dxy     :     0.012109
  1 C s       :     3.228591  s :     3.228591
      pz      :     0.968524  p :     2.676055
      px      :     0.870000
      py      :     0.837531
      dz2     :     0.005430  d :     0.050010
      dxz     :     0.007419
      dyz     :     0.009170
      dx2y2   :     0.012549
      dxy     :     0.015443
  2 C s       :     3.233428  s :     3.233428
      pz      :     0.959217  p :     2.761848
      px      :     0.922369
      py      :     0.880262
      dz2     :     0.007913  d :     0.049036
      dxz     :     0.007308
      dyz     :     0.009617
      dx2y2   :     0.012514
      dxy     :     0.011684
  3 C s       :     3.227963  s :     3.227963
      pz      :     0.884069  p :     2.675840
      px      :     0.936495
      py      :     0.855277
      dz2     :     0.010853  d :     0.049999
      dxz     :     0.008083
      dyz     :     0.012464
      dx2y2   :     0.008962
      dxy     :     0.009637
  4 C s       :     3.232808  s :     3.232808
      pz      :     0.894519  p :     2.763573
      px      :     0.939749
      py      :     0.929304
      dz2     :     0.012191  d :     0.049047
      dxz     :     0.008832
      dyz     :     0.009254
      dx2y2   :     0.010439
      dxy     :     0.008330
  5 C s       :     3.228717  s :     3.228717
      pz      :     0.894484  p :     2.675655
      px      :     0.857479
      py      :     0.923692
      dz2     :     0.008232  d :     0.050028
      dxz     :     0.012539
      dyz     :     0.008062
      dx2y2   :     0.009494
      dxy     :     0.011701
  6 C s       :     3.230492  s :     3.230492
      pz      :     0.874289  p :     2.746645
      px      :     0.908224
      py      :     0.964132
      dz2     :     0.010721  d :     0.047869
      dxz     :     0.013115
      dyz     :     0.007385
      dx2y2   :     0.008084
      dxy     :     0.008563
  7 C s       :     3.205944  s :     3.205944
      pz      :     0.853902  p :     2.595640
      px      :     0.813641
      py      :     0.928097
      dz2     :     0.011123  d :     0.046461
      dxz     :     0.012338
      dyz     :     0.007777
      dx2y2   :     0.007293
      dxy     :     0.007930
  8 C s       :     3.367167  s :     3.367167
      pz      :     1.059460  p :     2.967933
      px      :     0.955542
      py      :     0.952931
      dz2     :     0.011713  d :     0.038976
      dxz     :     0.007339
      dyz     :     0.005424
      dx2y2   :     0.008043
      dxy     :     0.006458
  9 C s       :     3.228098  s :     3.228098
      pz      :     0.876505  p :     2.634777
      px      :     0.894961
      py      :     0.863310
      dz2     :     0.012203  d :     0.045861
      dxz     :     0.008188
      dyz     :     0.009869
      dx2y2   :     0.007911
      dxy     :     0.007692
 10 C s       :     3.227668  s :     3.227668
      pz      :     0.879896  p :     2.636324
      px      :     0.870716
      py      :     0.885712
      dz2     :     0.008399  d :     0.045928
      dxz     :     0.007762
      dyz     :     0.007809
      dx2y2   :     0.013457
      dxy     :     0.008502
 11 C s       :     3.366200  s :     3.366200
      pz      :     0.962398  p :     2.967539
      px      :     0.947372
      py      :     1.057768
      dz2     :     0.009135  d :     0.038972
      dxz     :     0.006340
      dyz     :     0.008781
      dx2y2   :     0.008744
      dxy     :     0.005971
 12 C s       :     3.206293  s :     3.206293
      pz      :     0.830986  p :     2.597058
      px      :     0.926481
      py      :     0.839591
      dz2     :     0.011103  d :     0.046439
      dxz     :     0.007341
      dyz     :     0.011630
      dx2y2   :     0.008490
      dxy     :     0.007876
 13 C s       :     3.230906  s :     3.230906
      pz      :     0.943484  p :     2.745430
      px      :     0.987769
      py      :     0.814177
      dz2     :     0.010159  d :     0.047803
      dxz     :     0.006847
      dyz     :     0.014983
      dx2y2   :     0.007886
      dxy     :     0.007927
 14 C s       :     3.206898  s :     3.206898
      pz      :     0.975701  p :     2.596080
      px      :     0.846235
      py      :     0.774144
      dz2     :     0.003983  d :     0.046368
      dxz     :     0.006365
      dyz     :     0.007371
      dx2y2   :     0.015007
      dxy     :     0.013642
 15 C s       :     3.367217  s :     3.367217
      pz      :     0.967196  p :     2.967304
      px      :     1.061142
      py      :     0.938967
      dz2     :     0.004313  d :     0.038939
      dxz     :     0.004225
      dyz     :     0.006125
      dx2y2   :     0.014512
      dxy     :     0.009764
 16 C s       :     3.226536  s :     3.226536
      pz      :     0.951488  p :     2.636566
      px      :     0.859775
      py      :     0.825303
      dz2     :     0.006860  d :     0.045946
      dxz     :     0.007948
      dyz     :     0.007941
      dx2y2   :     0.012729
      dxy     :     0.010468
 17 C s       :     3.295375  s :     3.295375
      pz      :     1.054195  p :     2.963588
      px      :     0.925518
      py      :     0.983876
      dz2     :     0.009402  d :     0.039503
      dxz     :     0.010261
      dyz     :     0.004939
      dx2y2   :     0.007027
      dxy     :     0.007872
 18 C s       :     3.228387  s :     3.228387
      pz      :     0.956597  p :     2.932243
      px      :     0.972772
      py      :     1.002874
      dz2     :     0.007490  d :     0.039335
      dxz     :     0.012186
      dyz     :     0.006130
      dx2y2   :     0.005936
      dxy     :     0.007593
 19 C s       :     3.333396  s :     3.333396
      pz      :     0.945304  p :     2.960667
      px      :     1.051234
      py      :     0.964128
      dz2     :     0.009949  d :     0.039988
      dxz     :     0.009752
      dyz     :     0.005876
      dx2y2   :     0.009146
      dxy     :     0.005265
 20 C s       :     3.233682  s :     3.233682
      pz      :     0.861346  p :     2.616370
      px      :     0.855258
      py      :     0.899767
      dz2     :     0.008223  d :     0.046568
      dxz     :     0.010705
      dyz     :     0.007484
      dx2y2   :     0.011183
      dxy     :     0.008973
 21 C s       :     3.235038  s :     3.235038
      pz      :     0.831606  p :     2.617124
      px      :     0.957220
      py      :     0.828298
      dz2     :     0.010573  d :     0.046505
      dxz     :     0.007869
      dyz     :     0.014862
      dx2y2   :     0.005839
      dxy     :     0.007364
 22 C s       :     3.333369  s :     3.333369
      pz      :     1.015684  p :     2.960503
      px      :     0.976602
      py      :     0.968217
      dz2     :     0.009612  d :     0.039989
      dxz     :     0.004607
      dyz     :     0.014539
      dx2y2   :     0.006005
      dxy     :     0.005226
 23 C s       :     3.227449  s :     3.227449
      pz      :     1.016151  p :     2.932585
      px      :     1.006272
      py      :     0.910162
      dz2     :     0.010002  d :     0.039365
      dxz     :     0.004051
      dyz     :     0.011765
      dx2y2   :     0.006367
      dxy     :     0.007179
 24 C s       :     3.295199  s :     3.295199
      pz      :     0.919158  p :     2.963527
      px      :     0.982239
      py      :     1.062130
      dz2     :     0.011205  d :     0.039520
      dxz     :     0.006573
      dyz     :     0.010573
      dx2y2   :     0.007907
      dxy     :     0.003262
 25 C s       :     3.296002  s :     3.296002
      pz      :     0.990488  p :     2.963668
      px      :     1.056611
      py      :     0.916570
      dz2     :     0.004038  d :     0.039465
      dxz     :     0.002251
      dyz     :     0.007143
      dx2y2   :     0.014719
      dxy     :     0.011313
 26 C s       :     3.227776  s :     3.227776
      pz      :     1.001097  p :     2.931774
      px      :     0.945482
      py      :     0.985196
      dz2     :     0.004081  d :     0.039357
      dxz     :     0.005208
      dyz     :     0.004253
      dx2y2   :     0.010889
      dxy     :     0.014927
 27 C s       :     3.333296  s :     3.333296
      pz      :     0.985752  p :     2.960925
      px      :     0.935243
      py      :     1.039929
      dz2     :     0.003531  d :     0.039977
      dxz     :     0.006505
      dyz     :     0.004545
      dx2y2   :     0.013350
      dxy     :     0.012046
 28 C s       :     3.229912  s :     3.229912
      pz      :     0.978901  p :     2.746902
      px      :     0.841657
      py      :     0.926344
      dz2     :     0.004387  d :     0.047829
      dxz     :     0.007574
      dyz     :     0.007059
      dx2y2   :     0.013000
      dxy     :     0.015809
 29 C s       :     3.234160  s :     3.234160
      pz      :     0.969790  p :     2.616747
      px      :     0.797515
      py      :     0.849442
      dz2     :     0.004805  d :     0.046503
      dxz     :     0.007029
      dyz     :     0.007656
      dx2y2   :     0.013484
      dxy     :     0.013529
 30 H s       :     0.783435  s :     0.783435
 31 H s       :     0.783659  s :     0.783659
 32 H s       :     0.783857  s :     0.783857
 33 H s       :     0.776351  s :     0.776351
 34 H s       :     0.773281  s :     0.773281
 35 H s       :     0.781433  s :     0.781433
 36 H s       :     0.781474  s :     0.781474
 37 H s       :     0.773294  s :     0.773294
 38 H s       :     0.776337  s :     0.776337
 39 H s       :     0.776261  s :     0.776261
 40 H s       :     0.773179  s :     0.773179
 41 H s       :     0.781440  s :     0.781440


                     *******************************
                     * LOEWDIN POPULATION ANALYSIS *
                     *******************************

----------------------
LOEWDIN ATOMIC CHARGES
----------------------
   0 C :   -0.003421
   1 C :   -0.013596
   2 C :   -0.003191
   3 C :   -0.013549
   4 C :   -0.003285
   5 C :   -0.013380
   6 C :   -0.008627
   7 C :   -0.035462
   8 C :   -0.092737
   9 C :   -0.019548
  10 C :   -0.019391
  11 C :   -0.093007
  12 C :   -0.035206
  13 C :   -0.008814
  14 C :   -0.035103
  15 C :   -0.093543
  16 C :   -0.019160
  17 C :   -0.117418
  18 C :   -0.134665
  19 C :   -0.118080
  20 C :   -0.019125
  21 C :   -0.018722
  22 C :   -0.118039
  23 C :   -0.134738
  24 C :   -0.117580
  25 C :   -0.117746
  26 C :   -0.134560
  27 C :   -0.118358
  28 C :   -0.008514
  29 C :   -0.018747
  30 H :    0.142416
  31 H :    0.142389
  32 H :    0.142469
  33 H :    0.140098
  34 H :    0.139654
  35 H :    0.140269
  36 H :    0.140263
  37 H :    0.139545
  38 H :    0.140140
  39 H :    0.140163
  40 H :    0.139639
  41 H :    0.140265

-------------------------------
LOEWDIN REDUCED ORBITAL CHARGES
-------------------------------
  0 C s       :     2.829931  s :     2.829931
      pz      :     0.985159  p :     3.056379
      px      :     1.033553
      py      :     1.037667
      dz2     :     0.015153  d :     0.117111
      dxz     :     0.020517
      dyz     :     0.016674
      dx2y2   :     0.034008
      dxy     :     0.030759
  1 C s       :     2.823317  s :     2.823317
      pz      :     0.977256  p :     3.068795
      px      :     1.033464
      py      :     1.058075
      dz2     :     0.009868  d :     0.121484
      dxz     :     0.016061
      dyz     :     0.020446
      dx2y2   :     0.032367
      dxy     :     0.042742
  2 C s       :     2.829954  s :     2.829954
      pz      :     0.998408  p :     3.056167
      px      :     1.014790
      py      :     1.042969
      dz2     :     0.016839  d :     0.117069
      dxz     :     0.016496
      dyz     :     0.022931
      dx2y2   :     0.032533
      dxy     :     0.028270
  3 C s       :     2.823254  s :     2.823254
      pz      :     1.029305  p :     3.068827
      px      :     1.000610
      py      :     1.038913
      dz2     :     0.025333  d :     0.121468
      dxz     :     0.018910
      dyz     :     0.032306
      dx2y2   :     0.021291
      dxy     :     0.023629
  4 C s       :     2.829907  s :     2.829907
      pz      :     1.022758  p :     3.056269
      px      :     1.016179
      py      :     1.017331
      dz2     :     0.031657  d :     0.117109
      dxz     :     0.020625
      dyz     :     0.020583
      dx2y2   :     0.025234
      dxy     :     0.019011
  5 C s       :     2.823341  s :     2.823341
      pz      :     1.013008  p :     3.068540
      px      :     1.042804
      py      :     1.012728
      dz2     :     0.018278  d :     0.121500
      dxz     :     0.033019
      dyz     :     0.018872
      dx2y2   :     0.020815
      dxy     :     0.030517
  6 C s       :     2.827194  s :     2.827194
      pz      :     1.040526  p :     3.066778
      px      :     1.039734
      py      :     0.986517
      dz2     :     0.027193  d :     0.114654
      dxz     :     0.033284
      dyz     :     0.015800
      dx2y2   :     0.018753
      dxy     :     0.019624
  7 C s       :     2.838138  s :     2.838138
      pz      :     1.059264  p :     3.085578
      px      :     1.030635
      py      :     0.995679
      dz2     :     0.027342  d :     0.111746
      dxz     :     0.033059
      dyz     :     0.018759
      dx2y2   :     0.015083
      dxy     :     0.017502
  8 C s       :     2.897171  s :     2.897171
      pz      :     1.073661  p :     3.109753
      px      :     1.027371
      py      :     1.008720
      dz2     :     0.024416  d :     0.085812
      dxz     :     0.016982
      dyz     :     0.012404
      dx2y2   :     0.017244
      dxy     :     0.014766
  9 C s       :     2.848022  s :     2.848022
      pz      :     1.040754  p :     3.063862
      px      :     1.003524
      py      :     1.019584
      dz2     :     0.030675  d :     0.107663
      dxz     :     0.019618
      dyz     :     0.024789
      dx2y2   :     0.015423
      dxy     :     0.017158
 10 C s       :     2.847853  s :     2.847853
      pz      :     1.016467  p :     3.063706
      px      :     1.008260
      py      :     1.038979
      dz2     :     0.018221  d :     0.107832
      dxz     :     0.017312
      dyz     :     0.018669
      dx2y2   :     0.034212
      dxy     :     0.019417
 11 C s       :     2.897141  s :     2.897141
      pz      :     1.032936  p :     3.110078
      px      :     1.002107
      py      :     1.075036
      dz2     :     0.019302  d :     0.085788
      dxz     :     0.015068
      dyz     :     0.021168
      dx2y2   :     0.017526
      dxy     :     0.012724
 12 C s       :     2.838346  s :     2.838346
      pz      :     1.034671  p :     3.085209
      px      :     0.989765
      py      :     1.060773
      dz2     :     0.026917  d :     0.111651
      dxz     :     0.015694
      dyz     :     0.030804
      dx2y2   :     0.020135
      dxy     :     0.018100
 13 C s       :     2.827505  s :     2.827505
      pz      :     1.036550  p :     3.066878
      px      :     0.976343
      py      :     1.053985
      dz2     :     0.024929  d :     0.114430
      dxz     :     0.014804
      dyz     :     0.040378
      dx2y2   :     0.018131
      dxy     :     0.016188
 14 C s       :     2.838642  s :     2.838642
      pz      :     0.973332  p :     3.085042
      px      :     1.067449
      py      :     1.044260
      dz2     :     0.007268  d :     0.111419
      dxz     :     0.013095
      dyz     :     0.014988
      dx2y2   :     0.038972
      dxy     :     0.037096
 15 C s       :     2.897163  s :     2.897163
      pz      :     0.981109  p :     3.110678
      px      :     1.084042
      py      :     1.045527
      dz2     :     0.007341  d :     0.085702
      dxz     :     0.007714
      dyz     :     0.012631
      dx2y2   :     0.033631
      dxy     :     0.024386
 16 C s       :     2.847665  s :     2.847665
      pz      :     0.990575  p :     3.063586
      px      :     1.054241
      py      :     1.018771
      dz2     :     0.015199  d :     0.107909
      dxz     :     0.017003
      dyz     :     0.016914
      dx2y2   :     0.031808
      dxy     :     0.026985
 17 C s       :     2.893658  s :     2.893658
      pz      :     1.061655  p :     3.135384
      px      :     1.073838
      py      :     0.999891
      dz2     :     0.020006  d :     0.088375
      dxz     :     0.025335
      dyz     :     0.008577
      dx2y2   :     0.016989
      dxy     :     0.017468
 18 C s       :     2.893497  s :     2.893497
      pz      :     1.053586  p :     3.152536
      px      :     1.081969
      py      :     1.016981
      dz2     :     0.017662  d :     0.088632
      dxz     :     0.029278
      dyz     :     0.012636
      dx2y2   :     0.013472
      dxy     :     0.015583
 19 C s       :     2.892137  s :     2.892137
      pz      :     1.050632  p :     3.136315
      px      :     1.082766
      py      :     1.002917
      dz2     :     0.023061  d :     0.089628
      dxz     :     0.023296
      dyz     :     0.013729
      dx2y2   :     0.018114
      dxy     :     0.011428
 20 C s       :     2.844833  s :     2.844833
      pz      :     1.004852  p :     3.064192
      px      :     1.062588
      py      :     0.996751
      dz2     :     0.017926  d :     0.110101
      dxz     :     0.027065
      dyz     :     0.016452
      dx2y2   :     0.028306
      dxy     :     0.020353
 21 C s       :     2.845378  s :     2.845378
      pz      :     1.066634  p :     3.063522
      px      :     0.985895
      py      :     1.010993
      dz2     :     0.027476  d :     0.109823
      dxz     :     0.016549
      dyz     :     0.038603
      dx2y2   :     0.011343
      dxy     :     0.015851
 22 C s       :     2.892201  s :     2.892201
      pz      :     1.078960  p :     3.136215
      px      :     0.983389
      py      :     1.073866
      dz2     :     0.023036  d :     0.089623
      dxz     :     0.009117
      dyz     :     0.033549
      dx2y2   :     0.013081
      dxy     :     0.010840
 23 C s       :     2.893362  s :     2.893362
      pz      :     1.074649  p :     3.152631
      px      :     1.003813
      py      :     1.074170
      dz2     :     0.021867  d :     0.088745
      dxz     :     0.007092
      dyz     :     0.028978
      dx2y2   :     0.015404
      dxy     :     0.015404
 24 C s       :     2.893588  s :     2.893588
      pz      :     1.062895  p :     3.135555
      px      :     0.988645
      py      :     1.084015
      dz2     :     0.027274  d :     0.088437
      dxz     :     0.014248
      dyz     :     0.026894
      dx2y2   :     0.014136
      dxy     :     0.005884
 25 C s       :     2.893832  s :     2.893832
      pz      :     0.983671  p :     3.135643
      px      :     1.077480
      py      :     1.074491
      dz2     :     0.006401  d :     0.088271
      dxz     :     0.003508
      dyz     :     0.014616
      dx2y2   :     0.034691
      dxy     :     0.029055
 26 C s       :     2.893494  s :     2.893494
      pz      :     0.997412  p :     3.152369
      px      :     1.070950
      py      :     1.084006
      dz2     :     0.006705  d :     0.088698
      dxz     :     0.010856
      dyz     :     0.007962
      dx2y2   :     0.028057
      dxy     :     0.035118
 27 C s       :     2.892187  s :     2.892187
      pz      :     0.984546  p :     3.136571
      px      :     1.073533
      py      :     1.078492
      dz2     :     0.006111  d :     0.089600
      dxz     :     0.013415
      dyz     :     0.007814
      dx2y2   :     0.032616
      dxy     :     0.029644
 28 C s       :     2.827505  s :     2.827505
      pz      :     0.971291  p :     3.066520
      px      :     1.054246
      py      :     1.040984
      dz2     :     0.007629  d :     0.114489
      dxz     :     0.014892
      dyz     :     0.014879
      dx2y2   :     0.034831
      dxy     :     0.042258
 29 C s       :     2.845283  s :     2.845283
      pz      :     0.982367  p :     3.063606
      px      :     1.016677
      py      :     1.064562
      dz2     :     0.009427  d :     0.109858
      dxz     :     0.014686
      dyz     :     0.016240
      dx2y2   :     0.034413
      dxy     :     0.035092
 30 H s       :     0.857584  s :     0.857584
 31 H s       :     0.857611  s :     0.857611
 32 H s       :     0.857531  s :     0.857531
 33 H s       :     0.859902  s :     0.859902
 34 H s       :     0.860346  s :     0.860346
 35 H s       :     0.859731  s :     0.859731
 36 H s       :     0.859737  s :     0.859737
 37 H s       :     0.860455  s :     0.860455
 38 H s       :     0.859860  s :     0.859860
 39 H s       :     0.859837  s :     0.859837
 40 H s       :     0.860361  s :     0.860361
 41 H s       :     0.859735  s :     0.859735


                      *****************************
                      * MAYER POPULATION ANALYSIS *
                      *****************************

  NA   - Mulliken gross atomic population
  ZA   - Total nuclear charge
  QA   - Mulliken gross atomic charge
  VA   - Mayer's total valence
  BVA  - Mayer's bonded valence
  FA   - Mayer's free valence

  ATOM       NA         ZA         QA         VA         BVA        FA
  0 C      6.0456     6.0000    -0.0456     3.7568     3.7568    -0.0000
  1 C      5.9547     6.0000     0.0453     3.7129     3.7129     0.0000
  2 C      6.0443     6.0000    -0.0443     3.7553     3.7553     0.0000
  3 C      5.9538     6.0000     0.0462     3.7122     3.7122     0.0000
  4 C      6.0454     6.0000    -0.0454     3.7567     3.7567     0.0000
  5 C      5.9544     6.0000     0.0456     3.7121     3.7121    -0.0000
  6 C      6.0250     6.0000    -0.0250     3.7701     3.7701     0.0000
  7 C      5.8480     6.0000     0.1520     3.6568     3.6568     0.0000
  8 C      6.3741     6.0000    -0.3741     3.7479     3.7479    -0.0000
  9 C      5.9087     6.0000     0.0913     3.6754     3.6754     0.0000
 10 C      5.9099     6.0000     0.0901     3.6769     3.6769     0.0000
 11 C      6.3727     6.0000    -0.3727     3.7490     3.7490     0.0000
 12 C      5.8498     6.0000     0.1502     3.6584     3.6584     0.0000
 13 C      6.0241     6.0000    -0.0241     3.7691     3.7691     0.0000
 14 C      5.8493     6.0000     0.1507     3.6578     3.6578     0.0000
 15 C      6.3735     6.0000    -0.3735     3.7479     3.7479    -0.0000
 16 C      5.9090     6.0000     0.0910     3.6771     3.6771    -0.0000
 17 C      6.2985     6.0000    -0.2985     3.7991     3.7991     0.0000
 18 C      6.2000     6.0000    -0.2000     3.8207     3.8207     0.0000
 19 C      6.3341     6.0000    -0.3341     3.7818     3.7818    -0.0000
 20 C      5.8966     6.0000     0.1034     3.6586     3.6586    -0.0000
 21 C      5.8987     6.0000     0.1013     3.6589     3.6589     0.0000
 22 C      6.3339     6.0000    -0.3339     3.7821     3.7821     0.0000
 23 C      6.1994     6.0000    -0.1994     3.8213     3.8213     0.0000
 24 C      6.2982     6.0000    -0.2982     3.7994     3.7994     0.0000
 25 C      6.2991     6.0000    -0.2991     3.7986     3.7986    -0.0000
 26 C      6.1989     6.0000    -0.1989     3.8202     3.8202     0.0000
 27 C      6.3342     6.0000    -0.3342     3.7822     3.7822     0.0000
 28 C      6.0246     6.0000    -0.0246     3.7704     3.7704     0.0000
 29 C      5.8974     6.0000     0.1026     3.6592     3.6592     0.0000
 30 H      0.7834     1.0000     0.2166     0.9210     0.9210    -0.0000
 31 H      0.7837     1.0000     0.2163     0.9211     0.9211     0.0000
 32 H      0.7839     1.0000     0.2161     0.9214     0.9214    -0.0000
 33 H      0.7764     1.0000     0.2236     0.9139     0.9139     0.0000
 34 H      0.7733     1.0000     0.2267     0.9090     0.9090    -0.0000
 35 H      0.7814     1.0000     0.2186     0.9178     0.9178    -0.0000
 36 H      0.7815     1.0000     0.2185     0.9178     0.9178    -0.0000
 37 H      0.7733     1.0000     0.2267     0.9089     0.9089    -0.0000
 38 H      0.7763     1.0000     0.2237     0.9139     0.9139     0.0000
 39 H      0.7763     1.0000     0.2237     0.9140     0.9140    -0.0000
 40 H      0.7732     1.0000     0.2268     0.9089     0.9089     0.0000
 41 H      0.7814     1.0000     0.2186     0.9178     0.9178     0.0000

  Mayer bond orders larger than 0.100000
B(  0-C ,  1-C ) :   1.3440 B(  0-C ,  5-C ) :   1.1703 B(  0-C , 16-C ) :   1.1842 
B(  1-C ,  2-C ) :   1.1704 B(  1-C , 28-C ) :   1.1890 B(  2-C ,  3-C ) :   1.3438 
B(  2-C , 10-C ) :   1.1838 B(  3-C ,  4-C ) :   1.1704 B(  3-C , 13-C ) :   1.1892 
B(  4-C ,  5-C ) :   1.3438 B(  4-C ,  9-C ) :   1.1840 B(  5-C ,  6-C ) :   1.1893 
B(  6-C ,  7-C ) :   1.2702 B(  6-C , 20-C ) :   1.2365 B(  7-C ,  8-C ) :   1.1978 
B(  7-C , 17-C ) :   1.2254 B(  8-C ,  9-C ) :   1.5021 B(  8-C , 30-H ) :   0.9297 
B(  9-C , 21-C ) :   1.0151 B( 10-C , 11-C ) :   1.5041 B( 10-C , 29-C ) :   1.0146 
B( 11-C , 12-C ) :   1.1973 B( 11-C , 31-H ) :   0.9298 B( 12-C , 13-C ) :   1.2698 
B( 12-C , 24-C ) :   1.2268 B( 13-C , 21-C ) :   1.2370 B( 14-C , 15-C ) :   1.1969 
B( 14-C , 25-C ) :   1.2255 B( 14-C , 28-C ) :   1.2708 B( 15-C , 16-C ) :   1.5041 
B( 15-C , 32-H ) :   0.9301 B( 16-C , 20-C ) :   1.0147 B( 17-C , 18-C ) :   1.5287 
B( 17-C , 33-H ) :   0.9212 B( 18-C , 19-C ) :   1.3301 B( 18-C , 34-H ) :   0.9171 
B( 19-C , 20-C ) :   1.4218 B( 19-C , 35-H ) :   0.9266 B( 21-C , 22-C ) :   1.4202 
B( 22-C , 23-C ) :   1.3320 B( 22-C , 36-H ) :   0.9267 B( 23-C , 24-C ) :   1.5275 
B( 23-C , 37-H ) :   0.9170 B( 24-C , 38-H ) :   0.9212 B( 25-C , 26-C ) :   1.5281 
B( 25-C , 39-H ) :   0.9213 B( 26-C , 27-C ) :   1.3307 B( 26-C , 40-H ) :   0.9170 
B( 27-C , 29-C ) :   1.4214 B( 27-C , 41-H ) :   0.9266 B( 28-C , 29-C ) :   1.2369 


-------
TIMINGS
-------

Total SCF time: 0 days 0 hours 9 min 35 sec 

Total time                  ....     575.867 sec
Sum of individual times     ....     568.709 sec  ( 98.8%)

Fock matrix formation       ....     541.152 sec  ( 94.0%)
  Split-RI-J                ....      30.984 sec  (  5.7% of F)
  Chain of spheres X        ....     446.919 sec  ( 82.6% of F)
  XC integration            ....      53.906 sec  ( 10.0% of F)
    Basis function eval.    ....      15.841 sec  ( 29.4% of XC)
    Density eval.           ....      13.134 sec  ( 24.4% of XC)
    XC-Functional eval.     ....       2.875 sec  (  5.3% of XC)
    XC-Potential eval.      ....       8.038 sec  ( 14.9% of XC)
Diagonalization             ....       0.623 sec  (  0.1%)
Density matrix formation    ....       0.090 sec  (  0.0%)
Population analysis         ....       0.366 sec  (  0.1%)
Initial guess               ....       0.255 sec  (  0.0%)
Orbital Transformation      ....       0.000 sec  (  0.0%)
Orbital Orthonormalization  ....       0.000 sec  (  0.0%)
DIIS solution               ....       0.507 sec  (  0.1%)
SOSCF solution              ....       2.088 sec  (  0.4%)
Grid generation             ....      23.627 sec  (  4.1%)

Maximum memory used throughout the entire SCF-calculation: 160.2 MB


-------------------------------------------------------------------------------
                          DFT DISPERSION CORRECTION                            
                                                                               
                              DFTD3 V3.1  Rev 1                                
                          USING Becke-Johnson damping                          
-------------------------------------------------------------------------------
The PBEh-3c composite method is recognized
Using three-body term ABC
Active option DFTDOPT                   ...         4   

molecular C6(AA) [au] = 28378.309051 


            DFT-D V3
 parameters
 s6 scaling factor         :     1.0000 
 a1 scaling factor         :     0.4860 
 s8 scaling factor         :     0.0000 
 a2 scaling factor         :     4.5000 
 Damping factor alpha9(ATM):    16.0000 
 ad hoc parameters k1-k3   :    16.0000     1.3333    -4.0000 

 Edisp/kcal,au: -26.274487441525  -0.041871056494 
 E6   /kcal   : -26.486968128 
 E8   /kcal   :  -0.000000000 
 E6(ABC)      :   0.212480686 
 % E8         :   0.000000000 
 % E6(ABC)    :  -0.808695838 

-------------------------   ----------------
Dispersion correction           -0.041871056
-------------------------   ----------------

------------------   -----------------
gCP correction             0.052099534
------------------   -----------------

-------------------------   --------------------
FINAL SINGLE POINT ENERGY     -1147.852092809079
-------------------------   --------------------


                            ***************************************
                            *     ORCA property calculations      *
                            ***************************************

                                    ---------------------
                                    Active property flags
                                    ---------------------
   (+) Dipole Moment


------------------------------------------------------------------------------
                       ORCA ELECTRIC PROPERTIES CALCULATION
------------------------------------------------------------------------------

Dipole Moment Calculation                       ... on
Quadrupole Moment Calculation                   ... off
Polarizability Calculation                      ... off
GBWName                                         ... pbeh-3c.gbw
Electron density                                ... pbeh-3c.scfp
The origin for moment calculation is the CENTER OF MASS  = ( 0.068609, -0.021906 -0.950994)

-------------
DIPOLE MOMENT
-------------
                                X             Y             Z
Electronic contribution:      7.26368      -4.85332     -10.20091
Nuclear contribution   :     -8.35468       5.58033      11.74083
                        -----------------------------------------
Total Dipole Moment    :     -1.09099       0.72701       1.53992
                        -----------------------------------------
Magnitude (a.u.)       :      2.02241
Magnitude (Debye)      :      5.14056



--------------------
Rotational spectrum 
--------------------
 
Rotational constants in cm-1:     0.007355     0.007323     0.004198 
Rotational constants in MHz :   220.504309   219.545410   125.839516 

 Dipole components along the rotational axes: 
x,y,z [a.u.] :    -0.003769     0.002349     2.022407 
x,y,z [Debye]:    -0.009580     0.005972     5.140550 

 

Timings for individual modules:

Sum of individual times         ...      582.003 sec (=   9.700 min)
GTO integral calculation        ...        5.608 sec (=   0.093 min)   1.0 %
SCF iterations                  ...      576.396 sec (=   9.607 min)  99.0 %
                             ****ORCA TERMINATED NORMALLY****
TOTAL RUN TIME: 0 days 0 hours 9 minutes 44 seconds 980 msec
