
                                 *****************
                                 * O   R   C   A *
                                 *****************

                                            #,                                       
                                            ###                                      
                                            ####                                     
                                            #####                                    
                                            ######                                   
                                           ########,                                 
                                     ,,################,,,,,                         
                               ,,#################################,,                 
                          ,,##########################################,,             
                       ,#########################################, ''#####,          
                    ,#############################################,,   '####,        
                  ,##################################################,,,,####,       
                ,###########''''           ''''###############################       
              ,#####''   ,,,,##########,,,,          '''####'''          '####       
            ,##' ,,,,###########################,,,                        '##       
           ' ,,###''''                  '''############,,,                           
         ,,##''                                '''############,,,,        ,,,,,,###''
      ,#''                                            '''#######################'''  
     '                                                          ''''####''''         
             ,#######,   #######,   ,#######,      ##                                
            ,#'     '#,  ##    ##  ,#'     '#,    #''#        ######   ,####,        
            ##       ##  ##   ,#'  ##            #'  '#       #        #'  '#        
            ##       ##  #######   ##           ,######,      #####,   #    #        
            '#,     ,#'  ##    ##  '#,     ,#' ,#      #,         ##   #,  ,#        
             '#######'   ##     ##  '#######'  #'      '#     #####' # '####'        



                  #######################################################
                  #                        -***-                        #
                  #          Department of theory and spectroscopy      #
                  #    Directorship and core code : Frank Neese         #
                  #        Max Planck Institute fuer Kohlenforschung    #
                  #                Kaiser Wilhelm Platz 1               #
                  #                 D-45470 Muelheim/Ruhr               #
                  #                      Germany                        #
                  #                                                     #
                  #                  All rights reserved                #
                  #                        -***-                        #
                  #######################################################


                         Program Version 5.0.3 -  RELEASE  -


 With contributions from (in alphabetic order):
   Daniel Aravena         : Magnetic Suceptibility
   Michael Atanasov       : Ab Initio Ligand Field Theory (pilot matlab implementation)
   Alexander A. Auer      : GIAO ZORA, VPT2 properties, NMR spectrum
   Ute Becker             : Parallelization
   Giovanni Bistoni       : ED, misc. LED, open-shell LED, HFLD
   Martin Brehm           : Molecular dynamics
   Dmytro Bykov           : SCF Hessian
   Vijay G. Chilkuri      : MRCI spin determinant printing, contributions to CSF-ICE
   Dipayan Datta          : RHF DLPNO-CCSD density
   Achintya Kumar Dutta   : EOM-CC, STEOM-CC
   Dmitry Ganyushin       : Spin-Orbit,Spin-Spin,Magnetic field MRCI
   Miquel Garcia          : C-PCM and meta-GGA Hessian, CC/C-PCM, Gaussian charge scheme
   Yang Guo               : DLPNO-NEVPT2, F12-NEVPT2, CIM, IAO-localization
   Andreas Hansen         : Spin unrestricted coupled pair/coupled cluster methods
   Benjamin Helmich-Paris : MC-RPA, TRAH-SCF, COSX integrals
   Lee Huntington         : MR-EOM, pCC
   Robert Izsak           : Overlap fitted RIJCOSX, COSX-SCS-MP3, EOM
   Marcus Kettner         : VPT2
   Christian Kollmar      : KDIIS, OOCD, Brueckner-CCSD(T), CCSD density, CASPT2, CASPT2-K
   Simone Kossmann        : Meta GGA functionals, TD-DFT gradient, OOMP2, MP2 Hessian
   Martin Krupicka        : Initial AUTO-CI
   Lucas Lang             : DCDCAS
   Marvin Lechner         : AUTO-CI (C++ implementation), FIC-MRCC
   Dagmar Lenk            : GEPOL surface, SMD
   Dimitrios Liakos       : Extrapolation schemes; Compound Job, initial MDCI parallelization
   Dimitrios Manganas     : Further ROCIS development; embedding schemes
   Dimitrios Pantazis     : SARC Basis sets
   Anastasios Papadopoulos: AUTO-CI, single reference methods and gradients
   Taras Petrenko         : DFT Hessian,TD-DFT gradient, ASA, ECA, R-Raman, ABS, FL, XAS/XES, NRVS
   Peter Pinski           : DLPNO-MP2, DLPNO-MP2 Gradient
   Christoph Reimann      : Effective Core Potentials
   Marius Retegan         : Local ZFS, SOC
   Christoph Riplinger    : Optimizer, TS searches, QM/MM, DLPNO-CCSD(T), (RO)-DLPNO pert. Triples
   Tobias Risthaus        : Range-separated hybrids, TD-DFT gradient, RPA, STAB
   Michael Roemelt        : Original ROCIS implementation
   Masaaki Saitow         : Open-shell DLPNO-CCSD energy and density
   Barbara Sandhoefer     : DKH picture change effects
   Avijit Sen             : IP-ROCIS
   Kantharuban Sivalingam : CASSCF convergence, NEVPT2, FIC-MRCI
   Bernardo de Souza      : ESD, SOC TD-DFT
   Georgi Stoychev        : AutoAux, RI-MP2 NMR, DLPNO-MP2 response
   Willem Van den Heuvel  : Paramagnetic NMR
   Boris Wezisla          : Elementary symmetry handling
   Frank Wennmohs         : Technical directorship


 We gratefully acknowledge several colleagues who have allowed us to
 interface, adapt or use parts of their codes:
   Stefan Grimme, W. Hujo, H. Kruse, P. Pracht,  : VdW corrections, initial TS optimization,
                  C. Bannwarth, S. Ehlert          DFT functionals, gCP, sTDA/sTD-DF
   Ed Valeev, F. Pavosevic, A. Kumar             : LibInt (2-el integral package), F12 methods
   Garnet Chan, S. Sharma, J. Yang, R. Olivares  : DMRG
   Ulf Ekstrom                                   : XCFun DFT Library
   Mihaly Kallay                                 : mrcc  (arbitrary order and MRCC methods)
   Jiri Pittner, Ondrej Demel                    : Mk-CCSD
   Frank Weinhold                                : gennbo (NPA and NBO analysis)
   Christopher J. Cramer and Donald G. Truhlar   : smd solvation model
   Lars Goerigk                                  : TD-DFT with DH, B97 family of functionals
   V. Asgeirsson, H. Jonsson                     : NEB implementation
   FAccTs GmbH                                   : IRC, NEB, NEB-TS, DLPNO-Multilevel, CI-OPT
                                                   MM, QMMM, 2- and 3-layer-ONIOM, Crystal-QMMM,
                                                   LR-CPCM, SF, NACMEs, symmetry and pop. for TD-DFT,
                                                   nearIR, NL-DFT gradient (VV10), updates on ESD,
                                                   ML-optimized integration grids
   S Lehtola, MJT Oliveira, MAL Marques          : LibXC Library
   Liviu Ungur et al                             : ANISO software


 Your calculation uses the libint2 library for the computation of 2-el integrals
 For citations please refer to: http://libint.valeyev.net

 Your ORCA version has been built with support for libXC version: 5.1.0
 For citations please refer to: https://tddft.org/programs/libxc/

 This ORCA versions uses:
   CBLAS   interface :  Fast vector & matrix operations
   LAPACKE interface :  Fast linear algebra routines
   SCALAPACK package :  Parallel linear algebra routines
   Shared memory     :  Shared parallel matrices
   BLAS/LAPACK       :  OpenBLAS 0.3.15  USE64BITINT DYNAMIC_ARCH NO_AFFINITY Haswell SINGLE_THREADED
        Core in use  :  Haswell
   Copyright (c) 2011-2014, The OpenBLAS Project




***************************************
The coordinates will be read from file: C4H9NCO.xyz
***************************************


Your calculation utilizes the geometrical counterpoise correction gCP
Please cite in your paper:
H.Kruse, S. Grimme J.Chem.Phys., 136, (2012), 154101 
   

Your calculation utilizes the atom-pairwise dispersion correction
with the Becke-Johnson damping scheme (D3BJ)
Cite in your paper:
S.Grimme, S.Ehrlich, L.Goerigk, J Comput Chem, (2011), 32, 1456–1465 
S.Grimme, J.Antony, S.Ehrlich and H.Krieg, J.Chem.Phys., 132, (2010), 154104 
   

Your calculation employs the composite approach PBEh-3c.
Please cite in your paper:
S. Grimme, J. G. Brandenburg, C. Bannwarth, A. Hansen J.Chem.Phys., 143, (2015), 054107 
   

================================================================================

----- Orbital basis set information -----
Your calculation utilizes the basis: def2-mSVP

----- AuxJ basis set information -----
Your calculation utilizes the auxiliary basis: def2/J
   F. Weigend, Phys. Chem. Chem. Phys. 8, 1057 (2006).

================================================================================
                                        WARNINGS
                       Please study these warnings very carefully!
================================================================================


INFO   : the flag for use of the SHARK integral package has been found!

================================================================================
                                       INPUT FILE
================================================================================
NAME = pbeh-3c.inp
|  1> ! PBEh-3c def2/J TightSCF DefGrid3
|  2> 
|  3> %maxcore 60000
|  4> 
|  5> %pal
|  6> nprocs 4
|  7> end
|  8> 
|  9> *xyzfile 0 1 C4H9NCO.xyz
| 10> 
| 11>                          ****END OF INPUT****
================================================================================

                       ****************************
                       * Single Point Calculation *
                       ****************************

---------------------------------
CARTESIAN COORDINATES (ANGSTROEM)
---------------------------------
  C     -0.088646   -0.236136    0.126578
  H     -0.866734   -1.016812    0.134184
  H      0.869085   -0.745186    0.325272
  C     -0.372991    0.756530    1.259058
  H      0.409074    1.533798    1.291686
  H     -1.327187    1.269933    1.070434
  N     -0.477557    0.122303    2.556587
  C     -0.042479    0.445263   -1.245194
  H     -0.996807    0.968707   -1.423991
  H      0.736970    1.226312   -1.240552
  C      0.224133   -0.536307   -2.389527
  H      0.253517   -0.020886   -3.359702
  H      1.186498   -1.052257   -2.255522
  H     -0.560203   -1.306112   -2.444040
  C      0.237374   -0.427923    3.361449
  O      0.815953   -0.981226    4.233279

----------------------------
CARTESIAN COORDINATES (A.U.)
----------------------------
  NO LB      ZA    FRAG     MASS         X           Y           Z
   0 C     6.0000    0    12.011   -0.167516   -0.446232    0.239197
   1 H     1.0000    0     1.008   -1.637890   -1.921497    0.253571
   2 H     1.0000    0     1.008    1.642333   -1.408198    0.614675
   3 C     6.0000    0    12.011   -0.704851    1.429635    2.379276
   4 H     1.0000    0     1.008    0.773038    2.898458    2.440934
   5 H     1.0000    0     1.008   -2.508019    2.399826    2.022828
   6 N     7.0000    0    14.007   -0.902453    0.231119    4.831249
   7 C     6.0000    0    12.011   -0.080274    0.841425   -2.353076
   8 H     1.0000    0     1.008   -1.883693    1.830591   -2.690952
   9 H     1.0000    0     1.008    1.392672    2.317393   -2.344304
  10 C     6.0000    0    12.011    0.423550   -1.013473   -4.515552
  11 H     1.0000    0     1.008    0.479077   -0.039469   -6.348917
  12 H     1.0000    0     1.008    2.242156   -1.988478   -4.262319
  13 H     1.0000    0     1.008   -1.058630   -2.468195   -4.618566
  14 C     6.0000    0    12.011    0.448572   -0.808657    6.352218
  15 O     8.0000    0    15.999    1.541928   -1.854249    7.999738

--------------------------------
INTERNAL COORDINATES (ANGSTROEM)
--------------------------------
 C      0   0   0     0.000000000000     0.00000000     0.00000000
 H      1   0   0     1.102240784191     0.00000000     0.00000000
 H      1   2   0     1.102660596412   106.55373445     0.00000000
 C      1   2   3     1.532563242141   108.82517924   242.49859102
 H      4   1   2     1.103102806595   110.28630148   178.38759274
 H      4   1   2     1.099841318504   109.66917308   295.89523958
 N      4   1   2     1.448018538530   113.06958679    55.45333955
 C      1   2   3     1.532381576755   110.02229792   119.09802569
 H      8   1   2     1.103043325250   109.27203090    64.16301949
 H      8   1   2     1.103449130270   109.40611680   179.82658239
 C      8   1   2     1.531032006216   112.90793522   302.05038908
 H     11   8   1     1.098981776538   111.33357294   180.09161183
 H     11   8   1     1.100140421657   111.22082207   300.21499255
 H     11   8   1     1.100343224014   111.18795299    60.04062637
 C      7   4   1     1.208999119749   138.86585917    69.93013131
 O     15   7   4     1.183632478366   172.82003995   178.86987405

---------------------------
INTERNAL COORDINATES (A.U.)
---------------------------
 C      0   0   0     0.000000000000     0.00000000     0.00000000
 H      1   0   0     2.082933215760     0.00000000     0.00000000
 H      1   2   0     2.083726545885   106.55373445     0.00000000
 C      1   2   3     2.896124810561   108.82517924   242.49859102
 H      4   1   2     2.084562202025   110.28630148   178.38759274
 H      4   1   2     2.078398882744   109.66917308   295.89523958
 N      4   1   2     2.736358474662   113.06958679    55.45333955
 C      1   2   3     2.895781512734   110.02229792   119.09802569
 H      8   1   2     2.084449798572   109.27203090    64.16301949
 H      8   1   2     2.085216658924   109.40611680   179.82658239
 C      8   1   2     2.893231194016   112.90793522   302.05038908
 H     11   8   1     2.076774583826   111.33357294   180.09161183
 H     11   8   1     2.078964105788   111.22082207   300.21499255
 H     11   8   1     2.079347346702   111.18795299    60.04062637
 C      7   4   1     2.284677232477   138.86585917    69.93013131
 O     15   7   4     2.236741227326   172.82003995   178.86987405

---------------------
BASIS SET INFORMATION
---------------------
There are 4 groups of distinct atoms

 Group   1 Type C   : 8s4p1d contracted to 4s2p1d pattern {5111/31/1}
 Group   2 Type H   : 4s contracted to 2s pattern {31}
 Group   3 Type N   : 8s4p1d contracted to 4s2p1d pattern {5111/31/1}
 Group   4 Type O   : 8s4p1d contracted to 4s2p1d pattern {5111/31/1}

Atom   0C    basis set group =>   1
Atom   1H    basis set group =>   2
Atom   2H    basis set group =>   2
Atom   3C    basis set group =>   1
Atom   4H    basis set group =>   2
Atom   5H    basis set group =>   2
Atom   6N    basis set group =>   3
Atom   7C    basis set group =>   1
Atom   8H    basis set group =>   2
Atom   9H    basis set group =>   2
Atom  10C    basis set group =>   1
Atom  11H    basis set group =>   2
Atom  12H    basis set group =>   2
Atom  13H    basis set group =>   2
Atom  14C    basis set group =>   1
Atom  15O    basis set group =>   4
---------------------------------
AUXILIARY/J BASIS SET INFORMATION
---------------------------------
There are 4 groups of distinct atoms

 Group   1 Type C   : 12s5p4d2f1g contracted to 6s4p3d1f1g pattern {711111/2111/211/2/1}
 Group   2 Type H   : 5s2p1d contracted to 3s1p1d pattern {311/2/1}
 Group   3 Type N   : 12s5p4d2f1g contracted to 6s4p3d1f1g pattern {711111/2111/211/2/1}
 Group   4 Type O   : 12s5p4d2f1g contracted to 6s4p3d1f1g pattern {711111/2111/211/2/1}

Atom   0C    basis set group =>   1
Atom   1H    basis set group =>   2
Atom   2H    basis set group =>   2
Atom   3C    basis set group =>   1
Atom   4H    basis set group =>   2
Atom   5H    basis set group =>   2
Atom   6N    basis set group =>   3
Atom   7C    basis set group =>   1
Atom   8H    basis set group =>   2
Atom   9H    basis set group =>   2
Atom  10C    basis set group =>   1
Atom  11H    basis set group =>   2
Atom  12H    basis set group =>   2
Atom  13H    basis set group =>   2
Atom  14C    basis set group =>   1
Atom  15O    basis set group =>   4


           ************************************************************
           *        Program running with 4 parallel MPI-processes     *
           *              working on a common directory               *
           ************************************************************
------------------------------------------------------------------------------
                           ORCA GTO INTEGRAL CALCULATION
                           -- RI-GTO INTEGRALS CHOSEN --
------------------------------------------------------------------------------
------------------------------------------------------------------------------
                   ___                                                        
                  /   \      - P O W E R E D   B Y -                         
                 /     \                                                     
                 |  |  |   _    _      __       _____    __    __             
                 |  |  |  | |  | |    /  \     |  _  \  |  |  /  |          
                  \  \/   | |  | |   /    \    | | | |  |  | /  /          
                 / \  \   | |__| |  /  /\  \   | |_| |  |  |/  /          
                |  |  |   |  __  | /  /__\  \  |    /   |      \           
                |  |  |   | |  | | |   __   |  |    \   |  |\   \          
                \     /   | |  | | |  |  |  |  | |\  \  |  | \   \       
                 \___/    |_|  |_| |__|  |__|  |_| \__\ |__|  \__/        
                                                                              
                      - O R C A' S   B I G   F R I E N D -                    
                                      &                                       
                       - I N T E G R A L  F E E D E R -                       
                                                                              
 v1 FN, 2020, v2 2021                                                         
------------------------------------------------------------------------------


Reading SHARK input file pbeh-3c.SHARKINP.tmp ... ok
----------------------
SHARK INTEGRAL PACKAGE
----------------------

Number of atoms                             ...     16
Number of basis functions                   ...    123
Number of shells                            ...     67
Maximum angular momentum                    ...      2
Integral batch strategy                     ... SHARK/LIBINT Hybrid
RI-J (if used) integral strategy            ... SPLIT-RIJ (Revised 2003 algorithm where possible)
Printlevel                                  ...      1
Contraction scheme used                     ... SEGMENTED contraction
Coulomb Range Separation                    ... NOT USED
Exchange Range Separation                   ... NOT USED
Finite Nucleus Model                        ... NOT USED
Auxiliary Coulomb fitting basis             ... AVAILABLE
   # of basis functions in Aux-J            ...    442
   # of shells in Aux-J                     ...    150
   Maximum angular momentum in Aux-J        ...      4
Auxiliary J/K fitting basis                 ... NOT available
Auxiliary Correlation fitting basis         ... NOT available
Auxiliary 'external' fitting basis          ... NOT available
Integral threshold                          ...     2.500000e-11
Primitive cut-off                           ...     2.500000e-12
Primitive pair pre-selection threshold      ...     2.500000e-12

Calculating pre-screening integrals         ... done (  0.0 sec) Dimension = 67
Organizing shell pair data                  ... done (  0.3 sec)
Shell pair information
Total number of shell pairs                 ...      2278
Shell pairs after pre-screening             ...      1950
Total number of primitive shell pairs       ...      8246
Primitive shell pairs kept                  ...      5075
          la=0 lb=0:    889 shell pairs
          la=1 lb=0:    583 shell pairs
          la=1 lb=1:    102 shell pairs
          la=2 lb=0:    262 shell pairs
          la=2 lb=1:     90 shell pairs
          la=2 lb=2:     24 shell pairs

Calculating one electron integrals          ... done (  0.0 sec)
Calculating RI/J V-Matrix + Cholesky decomp.... done (  0.3 sec)
Calculating Nuclear repulsion               ... done (  0.0 sec) ENN=    275.743905464628 Eh

SHARK setup successfully completed in   1.6 seconds

Maximum memory used throughout the entire GTOINT-calculation: 10.6 MB


           ************************************************************
           *        Program running with 4 parallel MPI-processes     *
           *              working on a common directory               *
           ************************************************************
-------------------------------------------------------------------------------
                                 ORCA SCF
-------------------------------------------------------------------------------

------------
SCF SETTINGS
------------
Hamiltonian:
 Density Functional     Method          .... DFT(GTOs)
 Exchange Functional    Exchange        .... PBE
   PBE kappa parameter   XKappa         ....  1.024500
   PBE mue parameter    XMuePBE         ....  0.123457
 Correlation Functional Correlation     .... PBE
   PBE beta parameter  CBetaPBE         ....  0.030000
 LDA part of GGA corr.  LDAOpt          .... PW91-LDA
 Gradients option       PostSCFGGA      .... off
 Hybrid DFT is turned on
   Fraction HF Exchange ScalHFX         ....  0.420000
   Scaling of DF-GGA-X  ScalDFX         ....  0.580000
   Scaling of DF-GGA-C  ScalDFC         ....  1.000000
   Scaling of DF-LDA-C  ScalLDAC        ....  1.000000
   Perturbative correction              ....  0.000000
   Density functional embedding theory  .... OFF
 RI-approximation to the Coulomb term is turned on
   Number of AuxJ basis functions       .... 442
   RIJ-ON(X) (HFX calculated with O(N)) .... on
   Number of AuxJ basis functions       .... 442
   RIJ-COSX (HFX calculated with COS-X)).... on


General Settings:
 Integral files         IntName         .... pbeh-3c
 Hartree-Fock type      HFTyp           .... RHF
 Total Charge           Charge          ....    0
 Multiplicity           Mult            ....    1
 Number of Electrons    NEL             ....   54
 Basis Dimension        Dim             ....  123
 Nuclear Repulsion      ENuc            ....    275.7439054646 Eh

Convergence Acceleration:
 DIIS                   CNVDIIS         .... on
   Start iteration      DIISMaxIt       ....    12
   Startup error        DIISStart       ....  0.200000
   # of expansion vecs  DIISMaxEq       ....     5
   Bias factor          DIISBfac        ....   1.050
   Max. coefficient     DIISMaxC        ....  10.000
 Trust-Rad. Augm. Hess. CNVTRAH         .... auto
   Auto Start mean grad. ratio tolernc. ....  1.125000
   Auto Start start iteration           ....    20
   Auto Start num. interpolation iter.  ....    10
   Max. Number of Micro iterations      ....    16
   Max. Number of Macro iterations      .... Maxiter - #DIIS iter
   Number of Davidson start vectors     ....     2
   Converg. threshold I  (grad. norm)   ....   1.000e-05
   Converg. threshold II (energy diff.) ....   1.000e-08
   Grad. Scal. Fac. for Micro threshold ....   0.100
   Minimum threshold for Micro iter.    ....   0.010
   NR start threshold (gradient norm)   ....   0.001
   Initial trust radius                 ....   0.400
   Minimum AH scaling param. (alpha)    ....   1.000
   Maximum AH scaling param. (alpha)    .... 1000.000
   Orbital update algorithm             .... Taylor
   White noise on init. David. guess    .... on
   Maximum white noise                  ....   0.010
   Quad. conv. algorithm                .... NR
   COSX micro iterations for RIJONX calc.... off
 SOSCF                  CNVSOSCF        .... on
   Start iteration      SOSCFMaxIt      ....   150
   Startup grad/error   SOSCFStart      ....  0.003300
 Level Shifting         CNVShift        .... on
   Level shift para.    LevelShift      ....    0.2500
   Turn off err/grad.   ShiftErr        ....    0.0010
 Zerner damping         CNVZerner       .... off
 Static damping         CNVDamp         .... on
   Fraction old density DampFac         ....    0.7000
   Max. Damping (<1)    DampMax         ....    0.9800
   Min. Damping (>=0)   DampMin         ....    0.0000
   Turn off err/grad.   DampErr         ....    0.1000
 Fernandez-Rico         CNVRico         .... off

SCF Procedure:
 Maximum # iterations   MaxIter         ....   125
 SCF integral mode      SCFMode         .... Direct
   Integral package                     .... SHARK and LIBINT hybrid scheme
 Reset frequency        DirectResetFreq ....    20
 Integral Threshold     Thresh          ....  2.500e-11 Eh
 Primitive CutOff       TCut            ....  2.500e-12 Eh

Convergence Tolerance:
 Convergence Check Mode ConvCheckMode   .... Total+1el-Energy
 Convergence forced     ConvForced      .... 0
 Energy Change          TolE            ....  1.000e-08 Eh
 1-El. energy change                    ....  1.000e-05 Eh
 Orbital Gradient       TolG            ....  1.000e-05
 Orbital Rotation angle TolX            ....  1.000e-05
 DIIS Error             TolErr          ....  5.000e-07


Diagonalization of the overlap matrix:
Smallest eigenvalue                        ... 4.582e-03
Time for diagonalization                   ...    0.003 sec
Threshold for overlap eigenvalues          ... 1.000e-08
Number of eigenvalues below threshold      ... 0
Time for construction of square roots      ...    0.290 sec
Total time needed                          ...    0.293 sec

--------------------------------
INITIAL GUESS: MINIMAL BASIS EHT
--------------------------------
The minimal basis has 44 functions
EHT matrix was diagonalized
Basis set overlap was calculated now projecting the orbitals
Using GuessMode=FMatrix for the initial guess
C*T matrix was formed
Effective Fockian was calculated
Effective Fockian was diagonalized
Initial density was built
                      ------------------
                      INITIAL GUESS DONE
                      ------------------
-------------------
DFT GRID GENERATION
-------------------

General Integration Accuracy     IntAcc      ... 4.959
Radial Grid Type                 RadialGrid  ... OptM3 with GC (2021)
Angular Grid (max. ang.)         AngularGrid ... 6 (Lebedev-590)
Angular grid pruning method      GridPruning ... 4 (adaptive)
Weight generation scheme         WeightScheme... Becke
Basis function cutoff            BFCut       ... 1.0000e-11
Integration weight cutoff        WCut        ... 1.0000e-14
Angular grids for H and He will be reduced by one unit
Partially contracted basis set               ... off
Rotationally invariant grid construction     ... off

Total number of grid points                  ...   178792
Total number of batches                      ...     2802
Average number of points per batch           ...       63
Average number of grid points per atom       ...    11174
Time for grid setup =    3.906 sec

--------------------
COSX GRID GENERATION
--------------------

GRIDX 1
-------
General Integration Accuracy     IntAcc      ... 4.020
Radial Grid Type                 RadialGrid  ... OptM3 with GC (2021)
Angular Grid (max. ang.)         AngularGrid ... 2 (Lebedev-110)
Angular grid pruning method      GridPruning ... 4 (adaptive)
Weight generation scheme         WeightScheme... Becke
Basis function cutoff            BFCut       ... 1.0000e-11
Integration weight cutoff        WCut        ... 1.0000e-14
Angular grids for H and He will be reduced by one unit
Partially contracted basis set               ... on
Rotationally invariant grid construction     ... off

Total number of grid points                  ...    19591
Total number of batches                      ...      316
Average number of points per batch           ...       61
Average number of grid points per atom       ...     1224
UseSFitting                                  ... on

GRIDX 2
-------
General Integration Accuracy     IntAcc      ... 4.338
Radial Grid Type                 RadialGrid  ... OptM3 with GC (2021)
Angular Grid (max. ang.)         AngularGrid ... 3 (Lebedev-194)
Angular grid pruning method      GridPruning ... 4 (adaptive)
Weight generation scheme         WeightScheme... Becke
Basis function cutoff            BFCut       ... 1.0000e-11
Integration weight cutoff        WCut        ... 1.0000e-14
Angular grids for H and He will be reduced by one unit
Partially contracted basis set               ... on
Rotationally invariant grid construction     ... off

Total number of grid points                  ...    42954
Total number of batches                      ...      681
Average number of points per batch           ...       63
Average number of grid points per atom       ...     2685
UseSFitting                                  ... on

GRIDX 3
-------
General Integration Accuracy     IntAcc      ... 4.871
Radial Grid Type                 RadialGrid  ... OptM3 with GC (2021)
Angular Grid (max. ang.)         AngularGrid ... 4 (Lebedev-302)
Angular grid pruning method      GridPruning ... 4 (adaptive)
Weight generation scheme         WeightScheme... Becke
Basis function cutoff            BFCut       ... 1.0000e-11
Integration weight cutoff        WCut        ... 1.0000e-14
Angular grids for H and He will be reduced by one unit
Partially contracted basis set               ... on
Rotationally invariant grid construction     ... off

Total number of grid points                  ...    83224
Total number of batches                      ...     1310
Average number of points per batch           ...       63
Average number of grid points per atom       ...     5202
UseSFitting                                  ... on

Time for X-Grid setup             =    5.055 sec

--------------
SCF ITERATIONS
--------------
ITER       Energy         Delta-E        Max-DP      RMS-DP      [F,P]     Damp
               ***  Starting incremental Fock matrix formation  ***
  0   -324.2676316793   0.000000000000 0.14869305  0.00474417  0.4429782 0.7000
  1   -324.6163566189  -0.348724939651 0.07715225  0.00290852  0.2763376 0.7000
                               ***Turning on DIIS***
  2   -324.8028728929  -0.186516273990 0.04987490  0.00177551  0.1946190 0.7000
  3   -324.9310372535  -0.128164360569 0.03774492  0.00125782  0.1371721 0.7000
  4   -325.0223769134  -0.091339659942 0.08224692  0.00305378  0.0961544 0.0000
  5   -325.2408397268  -0.218462813363 0.01078709  0.00026744  0.0090175 0.0000
  6   -325.2410415191  -0.000201792363 0.00341747  0.00009785  0.0057882 0.0000
                      *** Initiating the SOSCF procedure ***
                           *** Shutting down DIIS ***
                      *** Re-Reading the Fockian *** 
                      *** Removing any level shift *** 
ITER      Energy       Delta-E        Grad      Rot      Max-DP    RMS-DP
  7   -325.24114528  -0.0001037573  0.000531  0.000531  0.001372  0.000042
               *** Restarting incremental Fock matrix formation ***
  8   -325.24115898  -0.0000137056  0.000616  0.001558  0.001583  0.000043
  9   -325.24115710   0.0000018812  0.000828  0.000795  0.000889  0.000023
 10   -325.24116250  -0.0000053997  0.000045  0.000139  0.000146  0.000004
 11   -325.24116253  -0.0000000284  0.000042  0.000064  0.000090  0.000002
 12   -325.24116256  -0.0000000299  0.000005  0.000007  0.000025  0.000001
 13   -325.24116256  -0.0000000012  0.000003  0.000002  0.000012  0.000000
                  ***Gradient check signals convergence***
              ***Rediagonalizing the Fockian in SOSCF/NRSCF***

               *****************************************************
               *                     SUCCESS                       *
               *           SCF CONVERGED AFTER  14 CYCLES          *
               *****************************************************

Old exchange energy                            =    -18.425869026 Eh
New exchange energy                            =    -18.425867332 Eh
Exchange energy change after final integration =      0.000001694 Eh
Total energy after final integration           =   -325.241160865 Eh
Final COS-X integration done in                =     3.838 sec

----------------
TOTAL SCF ENERGY
----------------

Total Energy       :         -325.24116087 Eh           -8850.26193 eV

Components:
Nuclear Repulsion  :          275.74390546 Eh            7503.37313 eV
Electronic Energy  :         -600.98506633 Eh          -16353.63506 eV
One Electron Energy:         -985.97116128 Eh          -26829.63929 eV
Two Electron Energy:          384.98609495 Eh           10476.00423 eV
Max COSX asymmetry :            0.00000210 Eh               0.00006 eV

Virial components:
Potential Energy   :         -647.73208551 Eh          -17625.68612 eV
Kinetic Energy     :          322.49092465 Eh            8775.42419 eV
Virial Ratio       :            2.00852810


DFT components:
N(Alpha)           :       27.000002665411 electrons
N(Beta)            :       27.000002665411 electrons
N(Total)           :       54.000005330822 electrons
E(X)               :      -24.492230949446 Eh       
E(C)               :       -2.335231882573 Eh       
E(XC)              :      -26.827462832019 Eh       
DFET-embed. en.    :        0.000000000000 Eh       

---------------
SCF CONVERGENCE
---------------

  Last Energy change         ...    4.4264e-10  Tolerance :   1.0000e-08
  Last MAX-Density change    ...    2.2204e-15  Tolerance :   1.0000e-07
  Last RMS-Density change    ...    4.3081e-17  Tolerance :   5.0000e-09
  Last Orbital Gradient      ...    3.8879e-07  Tolerance :   1.0000e-05
  Last Orbital Rotation      ...    1.4769e-06  Tolerance :   1.0000e-05

             **** THE GBW FILE WAS UPDATED (pbeh-3c.gbw) ****
             **** DENSITY pbeh-3c.scfp WAS UPDATED ****
             **** ENERGY FILE WAS UPDATED (pbeh-3c.en.tmp) ****
             **** THE GBW FILE WAS UPDATED (pbeh-3c.gbw) ****
             **** DENSITY pbeh-3c.scfp WAS UPDATED ****
----------------
ORBITAL ENERGIES
----------------

  NO   OCC          E(Eh)            E(eV) 
   0   2.0000     -19.535381      -531.5848 
   1   2.0000     -14.663263      -399.0077 
   2   2.0000     -10.586683      -288.0783 
   3   2.0000     -10.502724      -285.7936 
   4   2.0000     -10.452640      -284.4308 
   5   2.0000     -10.450791      -284.3805 
   6   2.0000     -10.437065      -284.0070 
   7   2.0000      -1.201465       -32.6935 
   8   2.0000      -1.050685       -28.5906 
   9   2.0000      -0.902649       -24.5623 
  10   2.0000      -0.834646       -22.7119 
  11   2.0000      -0.744990       -20.2722 
  12   2.0000      -0.668968       -18.2035 
  13   2.0000      -0.597822       -16.2676 
  14   2.0000      -0.562031       -15.2936 
  15   2.0000      -0.557416       -15.1681 
  16   2.0000      -0.527147       -14.3444 
  17   2.0000      -0.519289       -14.1306 
  18   2.0000      -0.492258       -13.3950 
  19   2.0000      -0.482052       -13.1173 
  20   2.0000      -0.453227       -12.3329 
  21   2.0000      -0.428368       -11.6565 
  22   2.0000      -0.418492       -11.3877 
  23   2.0000      -0.399222       -10.8634 
  24   2.0000      -0.388376       -10.5682 
  25   2.0000      -0.340496        -9.2654 
  26   2.0000      -0.325618        -8.8605 
  27   0.0000       0.054830         1.4920 
  28   0.0000       0.092945         2.5292 
  29   0.0000       0.129602         3.5266 
  30   0.0000       0.142704         3.8832 
  31   0.0000       0.160911         4.3786 
  32   0.0000       0.174538         4.7494 
  33   0.0000       0.187628         5.1056 
  34   0.0000       0.196747         5.3538 
  35   0.0000       0.216259         5.8847 
  36   0.0000       0.218497         5.9456 
  37   0.0000       0.223763         6.0889 
  38   0.0000       0.232988         6.3399 
  39   0.0000       0.246409         6.7051 
  40   0.0000       0.254430         6.9234 
  41   0.0000       0.285603         7.7716 
  42   0.0000       0.322392         8.7727 
  43   0.0000       0.423931        11.5357 
  44   0.0000       0.469796        12.7838 
  45   0.0000       0.476407        12.9637 
  46   0.0000       0.484689        13.1890 
  47   0.0000       0.510446        13.8899 
  48   0.0000       0.529702        14.4139 
  49   0.0000       0.561179        15.2705 
  50   0.0000       0.572575        15.5805 
  51   0.0000       0.583438        15.8762 
  52   0.0000       0.631216        17.1763 
  53   0.0000       0.635035        17.2802 
  54   0.0000       0.688714        18.7409 
  55   0.0000       0.702827        19.1249 
  56   0.0000       0.750874        20.4323 
  57   0.0000       0.766673        20.8622 
  58   0.0000       0.813610        22.1395 
  59   0.0000       0.875986        23.8368 
  60   0.0000       0.914764        24.8920 
  61   0.0000       0.947304        25.7775 
  62   0.0000       0.958373        26.0787 
  63   0.0000       0.980584        26.6831 
  64   0.0000       1.001021        27.2392 
  65   0.0000       1.017175        27.6787 
  66   0.0000       1.028664        27.9914 
  67   0.0000       1.037181        28.2231 
  68   0.0000       1.045543        28.4507 
  69   0.0000       1.048187        28.5226 
  70   0.0000       1.072572        29.1862 
  71   0.0000       1.109152        30.1816 
  72   0.0000       1.130759        30.7695 
  73   0.0000       1.150789        31.3146 
  74   0.0000       1.161355        31.6021 
  75   0.0000       1.284996        34.9665 
  76   0.0000       1.339073        36.4380 
  77   0.0000       1.388701        37.7885 
  78   0.0000       1.426397        38.8142 
  79   0.0000       1.475330        40.1458 
  80   0.0000       1.484507        40.3955 
  81   0.0000       1.519444        41.3462 
  82   0.0000       1.545174        42.0463 
  83   0.0000       1.594618        43.3918 
  84   0.0000       1.626709        44.2650 
  85   0.0000       1.675352        45.5887 
  86   0.0000       1.718994        46.7762 
  87   0.0000       1.800619        48.9973 
  88   0.0000       1.836870        49.9838 
  89   0.0000       1.902588        51.7721 
  90   0.0000       1.944441        52.9109 
  91   0.0000       1.970704        53.6256 
  92   0.0000       1.978858        53.8475 
  93   0.0000       1.993636        54.2496 
  94   0.0000       2.023614        55.0653 
  95   0.0000       2.055645        55.9370 
  96   0.0000       2.084701        56.7276 
  97   0.0000       2.101789        57.1926 
  98   0.0000       2.128973        57.9323 
  99   0.0000       2.137650        58.1684 
 100   0.0000       2.205308        60.0095 
 101   0.0000       2.302483        62.6537 
 102   0.0000       2.317358        63.0585 
 103   0.0000       2.336210        63.5715 
 104   0.0000       2.444145        66.5086 
 105   0.0000       2.458428        66.8972 
 106   0.0000       2.484811        67.6151 
 107   0.0000       2.539088        69.0921 
 108   0.0000       2.574513        70.0561 
 109   0.0000       2.708670        73.7067 
 110   0.0000       2.773056        75.4587 
 111   0.0000       2.817189        76.6596 
 112   0.0000       2.972686        80.8909 
 113   0.0000       3.080487        83.8243 
 114   0.0000       3.214590        87.4734 
 115   0.0000       3.342146        90.9444 
 116   0.0000      13.553244       368.8025 
 117   0.0000      13.796946       375.4340 
 118   0.0000      13.927290       378.9808 
 119   0.0000      14.031781       381.8242 
 120   0.0000      14.116853       384.1391 
 121   0.0000      19.406973       528.0906 
 122   0.0000      25.675423       698.6638 

                    ********************************
                    * MULLIKEN POPULATION ANALYSIS *
                    ********************************

-----------------------
MULLIKEN ATOMIC CHARGES
-----------------------
   0 C :   -0.422388
   1 H :    0.226323
   2 H :    0.215827
   3 C :   -0.258874
   4 H :    0.224930
   5 H :    0.231632
   6 N :   -0.408099
   7 C :   -0.417205
   8 H :    0.209961
   9 H :    0.209022
  10 C :   -0.634783
  11 H :    0.223461
  12 H :    0.213196
  13 H :    0.213535
  14 C :    0.510905
  15 O :   -0.337442
Sum of atomic charges:   -0.0000000

--------------------------------
MULLIKEN REDUCED ORBITAL CHARGES
--------------------------------
  0 C s       :     3.331217  s :     3.331217
      pz      :     0.902184  p :     3.048692
      px      :     1.130200
      py      :     1.016308
      dz2     :     0.010769  d :     0.042480
      dxz     :     0.004383
      dyz     :     0.010103
      dx2y2   :     0.003538
      dxy     :     0.013688
  1 H s       :     0.773677  s :     0.773677
  2 H s       :     0.784173  s :     0.784173
  3 C s       :     3.296223  s :     3.296223
      pz      :     0.764332  p :     2.902325
      px      :     1.149334
      py      :     0.988659
      dz2     :     0.018781  d :     0.060325
      dxz     :     0.007231
      dyz     :     0.014874
      dx2y2   :     0.004241
      dxy     :     0.015199
  4 H s       :     0.775070  s :     0.775070
  5 H s       :     0.768368  s :     0.768368
  6 N s       :     3.499318  s :     3.499318
      pz      :     1.157426  p :     3.872462
      px      :     1.378822
      py      :     1.336213
      dz2     :     0.008872  d :     0.036319
      dxz     :     0.008469
      dyz     :     0.005618
      dx2y2   :     0.006643
      dxy     :     0.006717
  7 C s       :     3.327775  s :     3.327775
      pz      :     0.908381  p :     3.046094
      px      :     1.110372
      py      :     1.027342
      dz2     :     0.012474  d :     0.043336
      dxz     :     0.004088
      dyz     :     0.009349
      dx2y2   :     0.003366
      dxy     :     0.014060
  8 H s       :     0.790039  s :     0.790039
  9 H s       :     0.790978  s :     0.790978
 10 C s       :     3.383167  s :     3.383167
      pz      :     1.037521  p :     3.214981
      px      :     1.119942
      py      :     1.057518
      dz2     :     0.010627  d :     0.036635
      dxz     :     0.001683
      dyz     :     0.008844
      dx2y2   :     0.003280
      dxy     :     0.012201
 11 H s       :     0.776539  s :     0.776539
 12 H s       :     0.786804  s :     0.786804
 13 H s       :     0.786465  s :     0.786465
 14 C s       :     2.888694  s :     2.888694
      pz      :     0.844426  p :     2.479592
      px      :     0.799951
      py      :     0.835215
      dz2     :     0.036343  d :     0.120809
      dxz     :     0.021856
      dyz     :     0.021567
      dx2y2   :     0.023627
      dxy     :     0.017416
 15 O s       :     3.754504  s :     3.754504
      pz      :     1.458255  p :     4.547915
      px      :     1.522742
      py      :     1.566918
      dz2     :     0.009864  d :     0.035024
      dxz     :     0.007606
      dyz     :     0.007490
      dx2y2   :     0.005333
      dxy     :     0.004731


                     *******************************
                     * LOEWDIN POPULATION ANALYSIS *
                     *******************************

----------------------
LOEWDIN ATOMIC CHARGES
----------------------
   0 C :   -0.248239
   1 H :    0.131183
   2 H :    0.126083
   3 C :   -0.127509
   4 H :    0.126324
   5 H :    0.130612
   6 N :   -0.194160
   7 C :   -0.246165
   8 H :    0.122305
   9 H :    0.121646
  10 C :   -0.359494
  11 H :    0.129615
  12 H :    0.126065
  13 H :    0.126243
  14 C :    0.191667
  15 O :   -0.156176

-------------------------------
LOEWDIN REDUCED ORBITAL CHARGES
-------------------------------
  0 C s       :     2.924106  s :     2.924106
      pz      :     1.036485  p :     3.237756
      px      :     1.114962
      py      :     1.086309
      dz2     :     0.022860  d :     0.086377
      dxz     :     0.008966
      dyz     :     0.023734
      dx2y2   :     0.006502
      dxy     :     0.024316
  1 H s       :     0.868817  s :     0.868817
  2 H s       :     0.873917  s :     0.873917
  3 C s       :     2.902188  s :     2.902188
      pz      :     0.912391  p :     3.102310
      px      :     1.126653
      py      :     1.063265
      dz2     :     0.038849  d :     0.123011
      dxz     :     0.015195
      dyz     :     0.033822
      dx2y2   :     0.007420
      dxy     :     0.027726
  4 H s       :     0.873676  s :     0.873676
  5 H s       :     0.869388  s :     0.869388
  6 N s       :     3.135379  s :     3.135379
      pz      :     1.229930  p :     3.982726
      px      :     1.405642
      py      :     1.347155
      dz2     :     0.017733  d :     0.076055
      dxz     :     0.021649
      dyz     :     0.013346
      dx2y2   :     0.010271
      dxy     :     0.013056
  7 C s       :     2.914982  s :     2.914982
      pz      :     1.043782  p :     3.243562
      px      :     1.109803
      py      :     1.089976
      dz2     :     0.026231  d :     0.087621
      dxz     :     0.008541
      dyz     :     0.021970
      dx2y2   :     0.006107
      dxy     :     0.024772
  8 H s       :     0.877695  s :     0.877695
  9 H s       :     0.878354  s :     0.878354
 10 C s       :     2.957611  s :     2.957611
      pz      :     1.092540  p :     3.333925
      px      :     1.131773
      py      :     1.109612
      dz2     :     0.019643  d :     0.067958
      dxz     :     0.003483
      dyz     :     0.017660
      dx2y2   :     0.006045
      dxy     :     0.021127
 11 H s       :     0.870385  s :     0.870385
 12 H s       :     0.873935  s :     0.873935
 13 H s       :     0.873757  s :     0.873757
 14 C s       :     2.830029  s :     2.830029
      pz      :     0.946979  p :     2.705906
      px      :     0.873383
      py      :     0.885544
      dz2     :     0.079481  d :     0.272398
      dxz     :     0.051973
      dyz     :     0.049371
      dx2y2   :     0.051587
      dxy     :     0.039986
 15 O s       :     3.512849  s :     3.512849
      pz      :     1.498724  p :     4.582261
      px      :     1.520507
      py      :     1.563030
      dz2     :     0.015100  d :     0.061066
      dxz     :     0.015136
      dyz     :     0.014938
      dx2y2   :     0.007490
      dxy     :     0.008402


                      *****************************
                      * MAYER POPULATION ANALYSIS *
                      *****************************

  NA   - Mulliken gross atomic population
  ZA   - Total nuclear charge
  QA   - Mulliken gross atomic charge
  VA   - Mayer's total valence
  BVA  - Mayer's bonded valence
  FA   - Mayer's free valence

  ATOM       NA         ZA         QA         VA         BVA        FA
  0 C      6.4224     6.0000    -0.4224     3.7125     3.7125     0.0000
  1 H      0.7737     1.0000     0.2263     0.9051     0.9051    -0.0000
  2 H      0.7842     1.0000     0.2158     0.9089     0.9089    -0.0000
  3 C      6.2589     6.0000    -0.2589     3.7146     3.7146    -0.0000
  4 H      0.7751     1.0000     0.2249     0.8997     0.8997    -0.0000
  5 H      0.7684     1.0000     0.2316     0.8976     0.8976    -0.0000
  6 N      7.4081     7.0000    -0.4081     3.1727     3.1727    -0.0000
  7 C      6.4172     6.0000    -0.4172     3.7413     3.7413     0.0000
  8 H      0.7900     1.0000     0.2100     0.9076     0.9076     0.0000
  9 H      0.7910     1.0000     0.2090     0.9077     0.9077    -0.0000
 10 C      6.6348     6.0000    -0.6348     3.7385     3.7385     0.0000
 11 H      0.7765     1.0000     0.2235     0.9128     0.9128     0.0000
 12 H      0.7868     1.0000     0.2132     0.9140     0.9140     0.0000
 13 H      0.7865     1.0000     0.2135     0.9140     0.9140    -0.0000
 14 C      5.4891     6.0000     0.5109     4.1204     4.1204     0.0000
 15 O      8.3374     8.0000    -0.3374     2.3422     2.3422     0.0000

  Mayer bond orders larger than 0.100000
B(  0-C ,  1-H ) :   0.9110 B(  0-C ,  2-H ) :   0.9135 B(  0-C ,  3-C ) :   0.9721 
B(  0-C ,  7-C ) :   0.9738 B(  3-C ,  4-H ) :   0.9032 B(  3-C ,  5-H ) :   0.9047 
B(  3-C ,  6-N ) :   0.9387 B(  6-N , 14-C ) :   2.0064 B(  6-N , 15-O ) :   0.2441 
B(  7-C ,  8-H ) :   0.9175 B(  7-C ,  9-H ) :   0.9177 B(  7-C , 10-C ) :   0.9939 
B( 10-C , 11-H ) :   0.9297 B( 10-C , 12-H ) :   0.9277 B( 10-C , 13-H ) :   0.9276 
B( 14-C , 15-O ) :   2.0665 

-------
TIMINGS
-------

Total SCF time: 0 days 0 hours 1 min 39 sec 

Total time                  ....      99.192 sec
Sum of individual times     ....      91.684 sec  ( 92.4%)

Fock matrix formation       ....      75.038 sec  ( 75.6%)
  Split-RI-J                ....       7.669 sec  ( 10.2% of F)
  Chain of spheres X        ....      27.041 sec  ( 36.0% of F)
  XC integration            ....      21.959 sec  ( 29.3% of F)
    Basis function eval.    ....       3.692 sec  ( 16.8% of XC)
    Density eval.           ....       1.899 sec  (  8.6% of XC)
    XC-Functional eval.     ....       1.668 sec  (  7.6% of XC)
    XC-Potential eval.      ....       1.055 sec  (  4.8% of XC)
Diagonalization             ....       0.757 sec  (  0.8%)
Density matrix formation    ....       0.116 sec  (  0.1%)
Population analysis         ....       0.765 sec  (  0.8%)
Initial guess               ....       0.019 sec  (  0.0%)
Orbital Transformation      ....       0.000 sec  (  0.0%)
Orbital Orthonormalization  ....       0.000 sec  (  0.0%)
DIIS solution               ....       5.123 sec  (  5.2%)
SOSCF solution              ....       0.905 sec  (  0.9%)
Grid generation             ....       8.961 sec  (  9.0%)

Maximum memory used throughout the entire SCF-calculation: 53.6 MB


-------------------------------------------------------------------------------
                          DFT DISPERSION CORRECTION                            
                                                                               
                              DFTD3 V3.1  Rev 1                                
                          USING Becke-Johnson damping                          
-------------------------------------------------------------------------------
The PBEh-3c composite method is recognized
Using three-body term ABC
Active option DFTDOPT                   ...         4   

molecular C6(AA) [au] = 2136.645453 


            DFT-D V3
 parameters
 s6 scaling factor         :     1.0000 
 a1 scaling factor         :     0.4860 
 s8 scaling factor         :     0.0000 
 a2 scaling factor         :     4.5000 
 Damping factor alpha9(ATM):    16.0000 
 ad hoc parameters k1-k3   :    16.0000     1.3333    -4.0000 

 Edisp/kcal,au: -4.333456080705  -0.006905801104 
 E6   /kcal   :  -4.337146057 
 E8   /kcal   :  -0.000000000 
 E6(ABC)      :   0.003689976 
 % E8         :   0.000000000 
 % E6(ABC)    :  -0.085150891 

-------------------------   ----------------
Dispersion correction           -0.006905801
-------------------------   ----------------

------------------   -----------------
gCP correction             0.023023969
------------------   -----------------

-------------------------   --------------------
FINAL SINGLE POINT ENERGY      -325.225042697168
-------------------------   --------------------


                            ***************************************
                            *     ORCA property calculations      *
                            ***************************************

                                    ---------------------
                                    Active property flags
                                    ---------------------
   (+) Dipole Moment


------------------------------------------------------------------------------
                       ORCA ELECTRIC PROPERTIES CALCULATION
------------------------------------------------------------------------------

Dipole Moment Calculation                       ... on
Quadrupole Moment Calculation                   ... off
Polarizability Calculation                      ... off
GBWName                                         ... pbeh-3c.gbw
Electron density                                ... pbeh-3c.scfp
The origin for moment calculation is the CENTER OF MASS  = ( 0.105899, -0.249796  2.076548)

-------------
DIPOLE MOMENT
-------------
                                X             Y             Z
Electronic contribution:      0.65261      -1.41618      15.44207
Nuclear contribution   :     -0.74237       1.90946     -16.63764
                        -----------------------------------------
Total Dipole Moment    :     -0.08977       0.49327      -1.19558
                        -----------------------------------------
Magnitude (a.u.)       :      1.29645
Magnitude (Debye)      :      3.29531



--------------------
Rotational spectrum 
--------------------
 
Rotational constants in cm-1:     0.285964     0.030962     0.028880 
Rotational constants in MHz :  8572.990195   928.208685   865.787820 

 Dipole components along the rotational axes: 
x,y,z [a.u.] :    -1.235033     0.339401    -0.200693 
x,y,z [Debye]:    -3.139204     0.862689    -0.510120 

 

Timings for individual modules:

Sum of individual times         ...      103.159 sec (=   1.719 min)
GTO integral calculation        ...        3.075 sec (=   0.051 min)   3.0 %
SCF iterations                  ...      100.084 sec (=   1.668 min)  97.0 %
                             ****ORCA TERMINATED NORMALLY****
TOTAL RUN TIME: 0 days 0 hours 1 minutes 50 seconds 396 msec
