
                                 *****************
                                 * O   R   C   A *
                                 *****************

                                            #,                                       
                                            ###                                      
                                            ####                                     
                                            #####                                    
                                            ######                                   
                                           ########,                                 
                                     ,,################,,,,,                         
                               ,,#################################,,                 
                          ,,##########################################,,             
                       ,#########################################, ''#####,          
                    ,#############################################,,   '####,        
                  ,##################################################,,,,####,       
                ,###########''''           ''''###############################       
              ,#####''   ,,,,##########,,,,          '''####'''          '####       
            ,##' ,,,,###########################,,,                        '##       
           ' ,,###''''                  '''############,,,                           
         ,,##''                                '''############,,,,        ,,,,,,###''
      ,#''                                            '''#######################'''  
     '                                                          ''''####''''         
             ,#######,   #######,   ,#######,      ##                                
            ,#'     '#,  ##    ##  ,#'     '#,    #''#        ######   ,####,        
            ##       ##  ##   ,#'  ##            #'  '#       #        #'  '#        
            ##       ##  #######   ##           ,######,      #####,   #    #        
            '#,     ,#'  ##    ##  '#,     ,#' ,#      #,         ##   #,  ,#        
             '#######'   ##     ##  '#######'  #'      '#     #####' # '####'        



                  #######################################################
                  #                        -***-                        #
                  #          Department of theory and spectroscopy      #
                  #    Directorship and core code : Frank Neese         #
                  #        Max Planck Institute fuer Kohlenforschung    #
                  #                Kaiser Wilhelm Platz 1               #
                  #                 D-45470 Muelheim/Ruhr               #
                  #                      Germany                        #
                  #                                                     #
                  #                  All rights reserved                #
                  #                        -***-                        #
                  #######################################################


                         Program Version 5.0.3 -  RELEASE  -


 With contributions from (in alphabetic order):
   Daniel Aravena         : Magnetic Suceptibility
   Michael Atanasov       : Ab Initio Ligand Field Theory (pilot matlab implementation)
   Alexander A. Auer      : GIAO ZORA, VPT2 properties, NMR spectrum
   Ute Becker             : Parallelization
   Giovanni Bistoni       : ED, misc. LED, open-shell LED, HFLD
   Martin Brehm           : Molecular dynamics
   Dmytro Bykov           : SCF Hessian
   Vijay G. Chilkuri      : MRCI spin determinant printing, contributions to CSF-ICE
   Dipayan Datta          : RHF DLPNO-CCSD density
   Achintya Kumar Dutta   : EOM-CC, STEOM-CC
   Dmitry Ganyushin       : Spin-Orbit,Spin-Spin,Magnetic field MRCI
   Miquel Garcia          : C-PCM and meta-GGA Hessian, CC/C-PCM, Gaussian charge scheme
   Yang Guo               : DLPNO-NEVPT2, F12-NEVPT2, CIM, IAO-localization
   Andreas Hansen         : Spin unrestricted coupled pair/coupled cluster methods
   Benjamin Helmich-Paris : MC-RPA, TRAH-SCF, COSX integrals
   Lee Huntington         : MR-EOM, pCC
   Robert Izsak           : Overlap fitted RIJCOSX, COSX-SCS-MP3, EOM
   Marcus Kettner         : VPT2
   Christian Kollmar      : KDIIS, OOCD, Brueckner-CCSD(T), CCSD density, CASPT2, CASPT2-K
   Simone Kossmann        : Meta GGA functionals, TD-DFT gradient, OOMP2, MP2 Hessian
   Martin Krupicka        : Initial AUTO-CI
   Lucas Lang             : DCDCAS
   Marvin Lechner         : AUTO-CI (C++ implementation), FIC-MRCC
   Dagmar Lenk            : GEPOL surface, SMD
   Dimitrios Liakos       : Extrapolation schemes; Compound Job, initial MDCI parallelization
   Dimitrios Manganas     : Further ROCIS development; embedding schemes
   Dimitrios Pantazis     : SARC Basis sets
   Anastasios Papadopoulos: AUTO-CI, single reference methods and gradients
   Taras Petrenko         : DFT Hessian,TD-DFT gradient, ASA, ECA, R-Raman, ABS, FL, XAS/XES, NRVS
   Peter Pinski           : DLPNO-MP2, DLPNO-MP2 Gradient
   Christoph Reimann      : Effective Core Potentials
   Marius Retegan         : Local ZFS, SOC
   Christoph Riplinger    : Optimizer, TS searches, QM/MM, DLPNO-CCSD(T), (RO)-DLPNO pert. Triples
   Tobias Risthaus        : Range-separated hybrids, TD-DFT gradient, RPA, STAB
   Michael Roemelt        : Original ROCIS implementation
   Masaaki Saitow         : Open-shell DLPNO-CCSD energy and density
   Barbara Sandhoefer     : DKH picture change effects
   Avijit Sen             : IP-ROCIS
   Kantharuban Sivalingam : CASSCF convergence, NEVPT2, FIC-MRCI
   Bernardo de Souza      : ESD, SOC TD-DFT
   Georgi Stoychev        : AutoAux, RI-MP2 NMR, DLPNO-MP2 response
   Willem Van den Heuvel  : Paramagnetic NMR
   Boris Wezisla          : Elementary symmetry handling
   Frank Wennmohs         : Technical directorship


 We gratefully acknowledge several colleagues who have allowed us to
 interface, adapt or use parts of their codes:
   Stefan Grimme, W. Hujo, H. Kruse, P. Pracht,  : VdW corrections, initial TS optimization,
                  C. Bannwarth, S. Ehlert          DFT functionals, gCP, sTDA/sTD-DF
   Ed Valeev, F. Pavosevic, A. Kumar             : LibInt (2-el integral package), F12 methods
   Garnet Chan, S. Sharma, J. Yang, R. Olivares  : DMRG
   Ulf Ekstrom                                   : XCFun DFT Library
   Mihaly Kallay                                 : mrcc  (arbitrary order and MRCC methods)
   Jiri Pittner, Ondrej Demel                    : Mk-CCSD
   Frank Weinhold                                : gennbo (NPA and NBO analysis)
   Christopher J. Cramer and Donald G. Truhlar   : smd solvation model
   Lars Goerigk                                  : TD-DFT with DH, B97 family of functionals
   V. Asgeirsson, H. Jonsson                     : NEB implementation
   FAccTs GmbH                                   : IRC, NEB, NEB-TS, DLPNO-Multilevel, CI-OPT
                                                   MM, QMMM, 2- and 3-layer-ONIOM, Crystal-QMMM,
                                                   LR-CPCM, SF, NACMEs, symmetry and pop. for TD-DFT,
                                                   nearIR, NL-DFT gradient (VV10), updates on ESD,
                                                   ML-optimized integration grids
   S Lehtola, MJT Oliveira, MAL Marques          : LibXC Library
   Liviu Ungur et al                             : ANISO software


 Your calculation uses the libint2 library for the computation of 2-el integrals
 For citations please refer to: http://libint.valeyev.net

 Your ORCA version has been built with support for libXC version: 5.1.0
 For citations please refer to: https://tddft.org/programs/libxc/

 This ORCA versions uses:
   CBLAS   interface :  Fast vector & matrix operations
   LAPACKE interface :  Fast linear algebra routines
   SCALAPACK package :  Parallel linear algebra routines
   Shared memory     :  Shared parallel matrices
   BLAS/LAPACK       :  OpenBLAS 0.3.15  USE64BITINT DYNAMIC_ARCH NO_AFFINITY Haswell SINGLE_THREADED
        Core in use  :  Haswell
   Copyright (c) 2011-2014, The OpenBLAS Project




***************************************
The coordinates will be read from file: 38.xyz
***************************************


Your calculation utilizes the geometrical counterpoise correction gCP
Please cite in your paper:
H.Kruse, S. Grimme J.Chem.Phys., 136, (2012), 154101 
   

Your calculation utilizes the atom-pairwise dispersion correction
with the Becke-Johnson damping scheme (D3BJ)
Cite in your paper:
S.Grimme, S.Ehrlich, L.Goerigk, J Comput Chem, (2011), 32, 1456–1465 
S.Grimme, J.Antony, S.Ehrlich and H.Krieg, J.Chem.Phys., 132, (2010), 154104 
   

Your calculation employs the composite approach PBEh-3c.
Please cite in your paper:
S. Grimme, J. G. Brandenburg, C. Bannwarth, A. Hansen J.Chem.Phys., 143, (2015), 054107 
   

================================================================================

----- Orbital basis set information -----
Your calculation utilizes the basis: def2-mSVP

----- AuxJ basis set information -----
Your calculation utilizes the auxiliary basis: def2/J
   F. Weigend, Phys. Chem. Chem. Phys. 8, 1057 (2006).

================================================================================
                                        WARNINGS
                       Please study these warnings very carefully!
================================================================================


INFO   : the flag for use of the SHARK integral package has been found!

================================================================================
                                       INPUT FILE
================================================================================
NAME = pbeh-3c.inp
|  1> ! PBEh-3c def2/J TightSCF DefGrid3
|  2> 
|  3> %maxcore 60000
|  4> 
|  5> %pal
|  6> nprocs 4
|  7> end
|  8> 
|  9> *xyzfile 0 1 38.xyz
| 10> 
| 11>                          ****END OF INPUT****
================================================================================

                       ****************************
                       * Single Point Calculation *
                       ****************************

---------------------------------
CARTESIAN COORDINATES (ANGSTROEM)
---------------------------------
  C     -0.435239   -1.931380    1.237825
  H     -0.569636   -2.787885    1.897190
  H     -0.628425   -1.040114    1.832311
  C      0.994919   -1.935903    0.638328
  H      1.535135   -2.823346    0.966621
  H      1.579316   -1.072972    0.953149
  C      0.802053   -1.979839   -0.885369
  H      1.623387   -2.475158   -1.400841
  H      0.725342   -0.966114   -1.283916
  C     -0.542364   -2.684345   -1.055915
  H     -0.428856   -3.751616   -0.851157
  H     -0.965029   -2.576519   -2.053835
  C     -1.390718   -2.032024    0.034927
  H     -2.300725   -2.583530    0.265266
  H     -1.685258   -1.033867   -0.293887
  C     -0.802053    1.979839   -0.885369
  H     -0.725342    0.966114   -1.283916
  H     -1.623387    2.475158   -1.400841
  C     -0.994919    1.935903    0.638328
  H     -1.579316    1.072972    0.953149
  H     -1.535135    2.823346    0.966621
  C      0.435239    1.931380    1.237825
  H      0.628425    1.040114    1.832311
  H      0.569636    2.787885    1.897190
  C      1.390718    2.032024    0.034927
  H      1.685258    1.033867   -0.293887
  H      2.300725    2.583530    0.265266
  C      0.542364    2.684345   -1.055915
  H      0.965029    2.576519   -2.053835
  H      0.428856    3.751616   -0.851157

----------------------------
CARTESIAN COORDINATES (A.U.)
----------------------------
  NO LB      ZA    FRAG     MASS         X           Y           Z
   0 C     6.0000    0    12.011   -0.822483   -3.649780    2.339150
   1 H     1.0000    0     1.008   -1.076456   -5.268339    3.585169
   2 H     1.0000    0     1.008   -1.187551   -1.965530    3.462567
   3 C     6.0000    0    12.011    1.880125   -3.658326    1.206265
   4 H     1.0000    0     1.008    2.900985   -5.335351    1.826649
   5 H     1.0000    0     1.008    2.984475   -2.027623    1.801191
   6 C     6.0000    0    12.011    1.515660   -3.741353   -1.673104
   7 H     1.0000    0     1.008    3.067757   -4.677371   -2.647206
   8 H     1.0000    0     1.008    1.370697   -1.825691   -2.426250
   9 C     6.0000    0    12.011   -1.024920   -5.072677   -1.995390
  10 H     1.0000    0     1.008   -0.810420   -7.089527   -1.608454
  11 H     1.0000    0     1.008   -1.823641   -4.868915   -3.881185
  12 C     6.0000    0    12.011   -2.628076   -3.839969    0.066002
  13 H     1.0000    0     1.008   -4.347741   -4.882164    0.501281
  14 H     1.0000    0     1.008   -3.184676   -1.953726   -0.555365
  15 C     6.0000    0    12.011   -1.515660    3.741353   -1.673104
  16 H     1.0000    0     1.008   -1.370697    1.825691   -2.426250
  17 H     1.0000    0     1.008   -3.067757    4.677371   -2.647206
  18 C     6.0000    0    12.011   -1.880125    3.658326    1.206265
  19 H     1.0000    0     1.008   -2.984475    2.027623    1.801191
  20 H     1.0000    0     1.008   -2.900985    5.335351    1.826649
  21 C     6.0000    0    12.011    0.822483    3.649780    2.339150
  22 H     1.0000    0     1.008    1.187551    1.965530    3.462567
  23 H     1.0000    0     1.008    1.076456    5.268339    3.585169
  24 C     6.0000    0    12.011    2.628076    3.839969    0.066002
  25 H     1.0000    0     1.008    3.184676    1.953726   -0.555365
  26 H     1.0000    0     1.008    4.347741    4.882164    0.501281
  27 C     6.0000    0    12.011    1.024920    5.072677   -1.995390
  28 H     1.0000    0     1.008    1.823641    4.868915   -3.881185
  29 H     1.0000    0     1.008    0.810420    7.089527   -1.608454

--------------------------------
INTERNAL COORDINATES (ANGSTROEM)
--------------------------------
 C      0   0   0     0.000000000000     0.00000000     0.00000000
 H      1   0   0     1.089231122066     0.00000000     0.00000000
 H      1   2   0     1.088618879885   106.93659982     0.00000000
 C      1   2   3     1.550732203661   110.21362597   122.15848259
 H      4   1   2     1.089570849868   110.06890566     2.96890716
 H      4   1   2     1.088706286038   112.39211933   243.81814828
 C      4   1   2     1.536483058130   105.52690583   121.30848947
 H      7   4   1     1.088872321889   112.81676300   209.07680766
 H      7   4   1     1.091953547418   110.13420005    88.82557073
 C      7   4   1     1.527374306181   103.55679006   332.39230175
 H     10   7   4     1.092646972072   109.76579144   285.87279861
 H     10   7   4     1.089089569353   113.46872171   164.96476375
 C     10   7   4     1.528124087412   102.24273576    42.52714929
 H     13  10   7     1.088728284586   113.50411167   196.06454559
 H     13  10   7     1.091416049405   108.97530957    76.25316727
 C     15  13  10     3.195673322783   147.52785932   288.04948844
 H     16  15  13     1.091953547418    37.95201063    73.67901727
 H     16  15  13     1.088872321889   107.94724707   169.51898612
 C     16  15  13     1.536483058130    75.80592788   279.30643766
 H     19  16  15     1.088706286038   112.13608535   342.60994252
 H     19  16  15     1.089570849868   109.73941111   223.84332776
 C     19  16  15     1.550732203661   105.52690583   105.28355644
 H     22  19  16     1.088618879885   112.15804521   240.32959371
 H     22  19  16     1.089231122066   110.21362597   121.30848947
 C     22  19  16     1.539490775258   105.67214887     2.28606420
 H     25  22  19     1.091416049405   110.06631303   267.31278016
 H     25  22  19     1.088728284586   112.74118800   147.24075796
 C     16  15  13     1.527374306181   134.34083168    14.52192065
 H     28  16  15     1.089089569353   113.46872171    81.68594538
 H     28  16  15     1.092646972072   109.76579144   202.59398024

---------------------------
INTERNAL COORDINATES (A.U.)
---------------------------
 C      0   0   0     0.000000000000     0.00000000     0.00000000
 H      1   0   0     2.058348517249     0.00000000     0.00000000
 H      1   2   0     2.057191547199   106.93659982     0.00000000
 C      1   2   3     2.930459171971   110.21362597   122.15848259
 H      4   1   2     2.058990509755   110.06890566     2.96890716
 H      4   1   2     2.057356720890   112.39211933   243.81814828
 C      4   1   2     2.903532189276   105.52690583   121.30848947
 H      7   4   1     2.057670483177   112.81676300   209.07680766
 H      7   4   1     2.063493155584   110.13420005    88.82557073
 C      7   4   1     2.886319142670   103.55679006   332.39230175
 H     10   7   4     2.064803538274   109.76579144   285.87279861
 H     10   7   4     2.058081021388   113.46872171   164.96476375
 C     10   7   4     2.887736023857   102.24273576    42.52714929
 H     13  10   7     2.057398292121   113.50411167   196.06454559
 H     13  10   7     2.062477431543   108.97530957    76.25316727
 C     15  13  10     6.038947393538   147.52785932   288.04948844
 H     16  15  13     2.063493155584    37.95201063    73.67901727
 H     16  15  13     2.057670483177   107.94724707   169.51898612
 C     16  15  13     2.903532189276    75.80592788   279.30643766
 H     19  16  15     2.057356720890   112.13608535   342.60994252
 H     19  16  15     2.058990509755   109.73941111   223.84332776
 C     19  16  15     2.930459171971   105.52690583   105.28355644
 H     22  19  16     2.057191547199   112.15804521   240.32959371
 H     22  19  16     2.058348517249   110.21362597   121.30848947
 C     22  19  16     2.909215950935   105.67214887     2.28606420
 H     25  22  19     2.062477431543   110.06631303   267.31278016
 H     25  22  19     2.057398292121   112.74118800   147.24075796
 C     16  15  13     2.886319142670   134.34083168    14.52192065
 H     28  16  15     2.058081021388   113.46872171    81.68594538
 H     28  16  15     2.064803538274   109.76579144   202.59398024

---------------------
BASIS SET INFORMATION
---------------------
There are 2 groups of distinct atoms

 Group   1 Type C   : 8s4p1d contracted to 4s2p1d pattern {5111/31/1}
 Group   2 Type H   : 4s contracted to 2s pattern {31}

Atom   0C    basis set group =>   1
Atom   1H    basis set group =>   2
Atom   2H    basis set group =>   2
Atom   3C    basis set group =>   1
Atom   4H    basis set group =>   2
Atom   5H    basis set group =>   2
Atom   6C    basis set group =>   1
Atom   7H    basis set group =>   2
Atom   8H    basis set group =>   2
Atom   9C    basis set group =>   1
Atom  10H    basis set group =>   2
Atom  11H    basis set group =>   2
Atom  12C    basis set group =>   1
Atom  13H    basis set group =>   2
Atom  14H    basis set group =>   2
Atom  15C    basis set group =>   1
Atom  16H    basis set group =>   2
Atom  17H    basis set group =>   2
Atom  18C    basis set group =>   1
Atom  19H    basis set group =>   2
Atom  20H    basis set group =>   2
Atom  21C    basis set group =>   1
Atom  22H    basis set group =>   2
Atom  23H    basis set group =>   2
Atom  24C    basis set group =>   1
Atom  25H    basis set group =>   2
Atom  26H    basis set group =>   2
Atom  27C    basis set group =>   1
Atom  28H    basis set group =>   2
Atom  29H    basis set group =>   2
---------------------------------
AUXILIARY/J BASIS SET INFORMATION
---------------------------------
There are 2 groups of distinct atoms

 Group   1 Type C   : 12s5p4d2f1g contracted to 6s4p3d1f1g pattern {711111/2111/211/2/1}
 Group   2 Type H   : 5s2p1d contracted to 3s1p1d pattern {311/2/1}

Atom   0C    basis set group =>   1
Atom   1H    basis set group =>   2
Atom   2H    basis set group =>   2
Atom   3C    basis set group =>   1
Atom   4H    basis set group =>   2
Atom   5H    basis set group =>   2
Atom   6C    basis set group =>   1
Atom   7H    basis set group =>   2
Atom   8H    basis set group =>   2
Atom   9C    basis set group =>   1
Atom  10H    basis set group =>   2
Atom  11H    basis set group =>   2
Atom  12C    basis set group =>   1
Atom  13H    basis set group =>   2
Atom  14H    basis set group =>   2
Atom  15C    basis set group =>   1
Atom  16H    basis set group =>   2
Atom  17H    basis set group =>   2
Atom  18C    basis set group =>   1
Atom  19H    basis set group =>   2
Atom  20H    basis set group =>   2
Atom  21C    basis set group =>   1
Atom  22H    basis set group =>   2
Atom  23H    basis set group =>   2
Atom  24C    basis set group =>   1
Atom  25H    basis set group =>   2
Atom  26H    basis set group =>   2
Atom  27C    basis set group =>   1
Atom  28H    basis set group =>   2
Atom  29H    basis set group =>   2


           ************************************************************
           *        Program running with 4 parallel MPI-processes     *
           *              working on a common directory               *
           ************************************************************
------------------------------------------------------------------------------
                           ORCA GTO INTEGRAL CALCULATION
                           -- RI-GTO INTEGRALS CHOSEN --
------------------------------------------------------------------------------
------------------------------------------------------------------------------
                   ___                                                        
                  /   \      - P O W E R E D   B Y -                         
                 /     \                                                     
                 |  |  |   _    _      __       _____    __    __             
                 |  |  |  | |  | |    /  \     |  _  \  |  |  /  |          
                  \  \/   | |  | |   /    \    | | | |  |  | /  /          
                 / \  \   | |__| |  /  /\  \   | |_| |  |  |/  /          
                |  |  |   |  __  | /  /__\  \  |    /   |      \           
                |  |  |   | |  | | |   __   |  |    \   |  |\   \          
                \     /   | |  | | |  |  |  |  | |\  \  |  | \   \       
                 \___/    |_|  |_| |__|  |__|  |_| \__\ |__|  \__/        
                                                                              
                      - O R C A' S   B I G   F R I E N D -                    
                                      &                                       
                       - I N T E G R A L  F E E D E R -                       
                                                                              
 v1 FN, 2020, v2 2021                                                         
------------------------------------------------------------------------------


Reading SHARK input file pbeh-3c.SHARKINP.tmp ... ok
----------------------
SHARK INTEGRAL PACKAGE
----------------------

Number of atoms                             ...     30
Number of basis functions                   ...    190
Number of shells                            ...    110
Maximum angular momentum                    ...      2
Integral batch strategy                     ... SHARK/LIBINT Hybrid
RI-J (if used) integral strategy            ... SPLIT-RIJ (Revised 2003 algorithm where possible)
Printlevel                                  ...      1
Contraction scheme used                     ... SEGMENTED contraction
Coulomb Range Separation                    ... NOT USED
Exchange Range Separation                   ... NOT USED
Finite Nucleus Model                        ... NOT USED
Auxiliary Coulomb fitting basis             ... AVAILABLE
   # of basis functions in Aux-J            ...    710
   # of shells in Aux-J                     ...    250
   Maximum angular momentum in Aux-J        ...      4
Auxiliary J/K fitting basis                 ... NOT available
Auxiliary Correlation fitting basis         ... NOT available
Auxiliary 'external' fitting basis          ... NOT available
Integral threshold                          ...     2.500000e-11
Primitive cut-off                           ...     2.500000e-12
Primitive pair pre-selection threshold      ...     2.500000e-12

Calculating pre-screening integrals         ... done (  0.0 sec) Dimension = 110
Organizing shell pair data                  ... done (  0.2 sec)
Shell pair information
Total number of shell pairs                 ...      6105
Shell pairs after pre-screening             ...      5254
Total number of primitive shell pairs       ...     22345
Primitive shell pairs kept                  ...     13017
          la=0 lb=0:   2707 shell pairs
          la=1 lb=0:   1466 shell pairs
          la=1 lb=1:    210 shell pairs
          la=2 lb=0:    634 shell pairs
          la=2 lb=1:    190 shell pairs
          la=2 lb=2:     47 shell pairs

Calculating one electron integrals          ... done (  0.0 sec)
Calculating RI/J V-Matrix + Cholesky decomp.... done (  0.7 sec)
Calculating Nuclear repulsion               ... done (  0.0 sec) ENN=    562.372923323121 Eh

SHARK setup successfully completed in   2.1 seconds

Maximum memory used throughout the entire GTOINT-calculation: 13.7 MB


           ************************************************************
           *        Program running with 4 parallel MPI-processes     *
           *              working on a common directory               *
           ************************************************************
-------------------------------------------------------------------------------
                                 ORCA SCF
-------------------------------------------------------------------------------

------------
SCF SETTINGS
------------
Hamiltonian:
 Density Functional     Method          .... DFT(GTOs)
 Exchange Functional    Exchange        .... PBE
   PBE kappa parameter   XKappa         ....  1.024500
   PBE mue parameter    XMuePBE         ....  0.123457
 Correlation Functional Correlation     .... PBE
   PBE beta parameter  CBetaPBE         ....  0.030000
 LDA part of GGA corr.  LDAOpt          .... PW91-LDA
 Gradients option       PostSCFGGA      .... off
 Hybrid DFT is turned on
   Fraction HF Exchange ScalHFX         ....  0.420000
   Scaling of DF-GGA-X  ScalDFX         ....  0.580000
   Scaling of DF-GGA-C  ScalDFC         ....  1.000000
   Scaling of DF-LDA-C  ScalLDAC        ....  1.000000
   Perturbative correction              ....  0.000000
   Density functional embedding theory  .... OFF
 RI-approximation to the Coulomb term is turned on
   Number of AuxJ basis functions       .... 710
   RIJ-ON(X) (HFX calculated with O(N)) .... on
   Number of AuxJ basis functions       .... 710
   RIJ-COSX (HFX calculated with COS-X)).... on


General Settings:
 Integral files         IntName         .... pbeh-3c
 Hartree-Fock type      HFTyp           .... RHF
 Total Charge           Charge          ....    0
 Multiplicity           Mult            ....    1
 Number of Electrons    NEL             ....   80
 Basis Dimension        Dim             ....  190
 Nuclear Repulsion      ENuc            ....    562.3729233231 Eh

Convergence Acceleration:
 DIIS                   CNVDIIS         .... on
   Start iteration      DIISMaxIt       ....    12
   Startup error        DIISStart       ....  0.200000
   # of expansion vecs  DIISMaxEq       ....     5
   Bias factor          DIISBfac        ....   1.050
   Max. coefficient     DIISMaxC        ....  10.000
 Trust-Rad. Augm. Hess. CNVTRAH         .... auto
   Auto Start mean grad. ratio tolernc. ....  1.125000
   Auto Start start iteration           ....    20
   Auto Start num. interpolation iter.  ....    10
   Max. Number of Micro iterations      ....    16
   Max. Number of Macro iterations      .... Maxiter - #DIIS iter
   Number of Davidson start vectors     ....     2
   Converg. threshold I  (grad. norm)   ....   1.000e-05
   Converg. threshold II (energy diff.) ....   1.000e-08
   Grad. Scal. Fac. for Micro threshold ....   0.100
   Minimum threshold for Micro iter.    ....   0.010
   NR start threshold (gradient norm)   ....   0.001
   Initial trust radius                 ....   0.400
   Minimum AH scaling param. (alpha)    ....   1.000
   Maximum AH scaling param. (alpha)    .... 1000.000
   Orbital update algorithm             .... Taylor
   White noise on init. David. guess    .... on
   Maximum white noise                  ....   0.010
   Quad. conv. algorithm                .... NR
   COSX micro iterations for RIJONX calc.... off
 SOSCF                  CNVSOSCF        .... on
   Start iteration      SOSCFMaxIt      ....   150
   Startup grad/error   SOSCFStart      ....  0.003300
 Level Shifting         CNVShift        .... on
   Level shift para.    LevelShift      ....    0.2500
   Turn off err/grad.   ShiftErr        ....    0.0010
 Zerner damping         CNVZerner       .... off
 Static damping         CNVDamp         .... on
   Fraction old density DampFac         ....    0.7000
   Max. Damping (<1)    DampMax         ....    0.9800
   Min. Damping (>=0)   DampMin         ....    0.0000
   Turn off err/grad.   DampErr         ....    0.1000
 Fernandez-Rico         CNVRico         .... off

SCF Procedure:
 Maximum # iterations   MaxIter         ....   125
 SCF integral mode      SCFMode         .... Direct
   Integral package                     .... SHARK and LIBINT hybrid scheme
 Reset frequency        DirectResetFreq ....    20
 Integral Threshold     Thresh          ....  2.500e-11 Eh
 Primitive CutOff       TCut            ....  2.500e-12 Eh

Convergence Tolerance:
 Convergence Check Mode ConvCheckMode   .... Total+1el-Energy
 Convergence forced     ConvForced      .... 0
 Energy Change          TolE            ....  1.000e-08 Eh
 1-El. energy change                    ....  1.000e-05 Eh
 Orbital Gradient       TolG            ....  1.000e-05
 Orbital Rotation angle TolX            ....  1.000e-05
 DIIS Error             TolErr          ....  5.000e-07


Diagonalization of the overlap matrix:
Smallest eigenvalue                        ... 5.337e-03
Time for diagonalization                   ...    0.031 sec
Threshold for overlap eigenvalues          ... 1.000e-08
Number of eigenvalues below threshold      ... 0
Time for construction of square roots      ...    0.044 sec
Total time needed                          ...    0.075 sec

--------------------------------
INITIAL GUESS: MINIMAL BASIS EHT
--------------------------------
The minimal basis has 70 functions
EHT matrix was diagonalized
Basis set overlap was calculated now projecting the orbitals
Using GuessMode=FMatrix for the initial guess
C*T matrix was formed
Effective Fockian was calculated
Effective Fockian was diagonalized
Initial density was built
                      ------------------
                      INITIAL GUESS DONE
                      ------------------
-------------------
DFT GRID GENERATION
-------------------

General Integration Accuracy     IntAcc      ... 4.959
Radial Grid Type                 RadialGrid  ... OptM3 with GC (2021)
Angular Grid (max. ang.)         AngularGrid ... 6 (Lebedev-590)
Angular grid pruning method      GridPruning ... 4 (adaptive)
Weight generation scheme         WeightScheme... Becke
Basis function cutoff            BFCut       ... 1.0000e-11
Integration weight cutoff        WCut        ... 1.0000e-14
Angular grids for H and He will be reduced by one unit
Partially contracted basis set               ... off
Rotationally invariant grid construction     ... off

Total number of grid points                  ...   311428
Total number of batches                      ...     4882
Average number of points per batch           ...       63
Average number of grid points per atom       ...    10381
Time for grid setup =    6.582 sec

--------------------
COSX GRID GENERATION
--------------------

GRIDX 1
-------
General Integration Accuracy     IntAcc      ... 4.020
Radial Grid Type                 RadialGrid  ... OptM3 with GC (2021)
Angular Grid (max. ang.)         AngularGrid ... 2 (Lebedev-110)
Angular grid pruning method      GridPruning ... 4 (adaptive)
Weight generation scheme         WeightScheme... Becke
Basis function cutoff            BFCut       ... 1.0000e-11
Integration weight cutoff        WCut        ... 1.0000e-14
Angular grids for H and He will be reduced by one unit
Partially contracted basis set               ... on
Rotationally invariant grid construction     ... off

Total number of grid points                  ...    32342
Total number of batches                      ...      520
Average number of points per batch           ...       62
Average number of grid points per atom       ...     1078
UseSFitting                                  ... on

GRIDX 2
-------
General Integration Accuracy     IntAcc      ... 4.338
Radial Grid Type                 RadialGrid  ... OptM3 with GC (2021)
Angular Grid (max. ang.)         AngularGrid ... 3 (Lebedev-194)
Angular grid pruning method      GridPruning ... 4 (adaptive)
Weight generation scheme         WeightScheme... Becke
Basis function cutoff            BFCut       ... 1.0000e-11
Integration weight cutoff        WCut        ... 1.0000e-14
Angular grids for H and He will be reduced by one unit
Partially contracted basis set               ... on
Rotationally invariant grid construction     ... off

Total number of grid points                  ...    70024
Total number of batches                      ...     1114
Average number of points per batch           ...       62
Average number of grid points per atom       ...     2334
UseSFitting                                  ... on

GRIDX 3
-------
General Integration Accuracy     IntAcc      ... 4.871
Radial Grid Type                 RadialGrid  ... OptM3 with GC (2021)
Angular Grid (max. ang.)         AngularGrid ... 4 (Lebedev-302)
Angular grid pruning method      GridPruning ... 4 (adaptive)
Weight generation scheme         WeightScheme... Becke
Basis function cutoff            BFCut       ... 1.0000e-11
Integration weight cutoff        WCut        ... 1.0000e-14
Angular grids for H and He will be reduced by one unit
Partially contracted basis set               ... on
Rotationally invariant grid construction     ... off

Total number of grid points                  ...   138660
Total number of batches                      ...     2178
Average number of points per batch           ...       63
Average number of grid points per atom       ...     4622
UseSFitting                                  ... on

Time for X-Grid setup             =    5.779 sec

--------------
SCF ITERATIONS
--------------
ITER       Energy         Delta-E        Max-DP      RMS-DP      [F,P]     Damp
               ***  Starting incremental Fock matrix formation  ***
  0   -391.5649141010   0.000000000000 0.02602209  0.00170970  0.3954869 0.7000
  1   -391.7746422976  -0.209728196550 0.02013669  0.00130133  0.2799268 0.7000
                               ***Turning on DIIS***
  2   -391.9249067880  -0.150264490443 0.01528253  0.00097206  0.1971235 0.7000
  3   -392.0314863196  -0.106579531622 0.01207134  0.00075834  0.1386898 0.7000
  4   -392.1068979114  -0.075411591734 0.03042388  0.00189143  0.0971431 0.0000
                      *** Initiating the SOSCF procedure ***
                           *** Shutting down DIIS ***
                      *** Re-Reading the Fockian *** 
                      *** Removing any level shift *** 
ITER      Energy       Delta-E        Grad      Rot      Max-DP    RMS-DP
  5   -392.28591333  -0.1790154221  0.000803  0.000803  0.001290  0.000082
               *** Restarting incremental Fock matrix formation ***
  6   -392.28595983  -0.0000464958  0.000287  0.000539  0.000775  0.000054
  7   -392.28596586  -0.0000060310  0.000176  0.000215  0.000283  0.000018
  8   -392.28596773  -0.0000018734  0.000053  0.000069  0.000119  0.000007
  9   -392.28596786  -0.0000001280  0.000003  0.000005  0.000009  0.000000
                  ***Gradient check signals convergence***
              ***Rediagonalizing the Fockian in SOSCF/NRSCF***

               *****************************************************
               *                     SUCCESS                       *
               *           SCF CONVERGED AFTER  10 CYCLES          *
               *****************************************************

Old exchange energy                            =    -24.796185028 Eh
New exchange energy                            =    -24.796191702 Eh
Exchange energy change after final integration =     -0.000006673 Eh
Total energy after final integration           =   -392.285974537 Eh
Final COS-X integration done in                =    11.073 sec

----------------
TOTAL SCF ENERGY
----------------

Total Energy       :         -392.28597454 Eh          -10674.64406 eV

Components:
Nuclear Repulsion  :          562.37292332 Eh           15302.94523 eV
Electronic Energy  :         -954.65889786 Eh          -25977.58929 eV
One Electron Energy:        -1643.05120388 Eh          -44709.69625 eV
Two Electron Energy:          688.39230602 Eh           18732.10697 eV
Max COSX asymmetry :            0.00000100 Eh               0.00003 eV

Virial components:
Potential Energy   :         -781.29619831 Eh          -21260.15040 eV
Kinetic Energy     :          389.01022377 Eh           10585.50635 eV
Virial Ratio       :            2.00842073


DFT components:
N(Alpha)           :       40.000010336009 electrons
N(Beta)            :       40.000010336009 electrons
N(Total)           :       80.000020672019 electrons
E(X)               :      -32.844110802800 Eh       
E(C)               :       -3.403356399921 Eh       
E(XC)              :      -36.247467202721 Eh       
DFET-embed. en.    :        0.000000000000 Eh       

---------------
SCF CONVERGENCE
---------------

  Last Energy change         ...   -2.4027e-09  Tolerance :   1.0000e-08
  Last MAX-Density change    ...    8.9512e-16  Tolerance :   1.0000e-07
  Last RMS-Density change    ...    3.6439e-17  Tolerance :   5.0000e-09
  Last Orbital Gradient      ...    1.4411e-06  Tolerance :   1.0000e-05
  Last Orbital Rotation      ...    1.4790e-06  Tolerance :   1.0000e-05

             **** THE GBW FILE WAS UPDATED (pbeh-3c.gbw) ****
             **** DENSITY pbeh-3c.scfp WAS UPDATED ****
             **** ENERGY FILE WAS UPDATED (pbeh-3c.en.tmp) ****
             **** THE GBW FILE WAS UPDATED (pbeh-3c.gbw) ****
             **** DENSITY pbeh-3c.scfp WAS UPDATED ****
----------------
ORBITAL ENERGIES
----------------

  NO   OCC          E(Eh)            E(eV) 
   0   2.0000     -10.425619      -283.6955 
   1   2.0000     -10.425608      -283.6952 
   2   2.0000     -10.425414      -283.6899 
   3   2.0000     -10.425402      -283.6896 
   4   2.0000     -10.425315      -283.6872 
   5   2.0000     -10.425309      -283.6871 
   6   2.0000     -10.425183      -283.6836 
   7   2.0000     -10.425177      -283.6835 
   8   2.0000     -10.424988      -283.6784 
   9   2.0000     -10.424983      -283.6782 
  10   2.0000      -0.926858       -25.2211 
  11   2.0000      -0.924512       -25.1572 
  12   2.0000      -0.788903       -21.4671 
  13   2.0000      -0.788241       -21.4491 
  14   2.0000      -0.785763       -21.3817 
  15   2.0000      -0.785161       -21.3653 
  16   2.0000      -0.640292       -17.4232 
  17   2.0000      -0.635446       -17.2914 
  18   2.0000      -0.628108       -17.0917 
  19   2.0000      -0.627967       -17.0878 
  20   2.0000      -0.548302       -14.9200 
  21   2.0000      -0.537601       -14.6289 
  22   2.0000      -0.536974       -14.6118 
  23   2.0000      -0.530465       -14.4347 
  24   2.0000      -0.474843       -12.9211 
  25   2.0000      -0.473643       -12.8885 
  26   2.0000      -0.462045       -12.5729 
  27   2.0000      -0.458761       -12.4835 
  28   2.0000      -0.386788       -10.5250 
  29   2.0000      -0.386610       -10.5202 
  30   2.0000      -0.385248       -10.4831 
  31   2.0000      -0.382733       -10.4147 
  32   2.0000      -0.380712       -10.3597 
  33   2.0000      -0.380523       -10.3546 
  34   2.0000      -0.377394       -10.2694 
  35   2.0000      -0.375917       -10.2292 
  36   2.0000      -0.374912       -10.2019 
  37   2.0000      -0.363161        -9.8821 
  38   2.0000      -0.359704        -9.7880 
  39   2.0000      -0.358374        -9.7518 
  40   0.0000       0.089599         2.4381 
  41   0.0000       0.131346         3.5741 
  42   0.0000       0.143758         3.9119 
  43   0.0000       0.150129         4.0852 
  44   0.0000       0.152032         4.1370 
  45   0.0000       0.177920         4.8415 
  46   0.0000       0.197007         5.3608 
  47   0.0000       0.205736         5.5983 
  48   0.0000       0.209924         5.7123 
  49   0.0000       0.213322         5.8048 
  50   0.0000       0.218236         5.9385 
  51   0.0000       0.222681         6.0594 
  52   0.0000       0.222710         6.0602 
  53   0.0000       0.229262         6.2385 
  54   0.0000       0.230991         6.2856 
  55   0.0000       0.233007         6.3404 
  56   0.0000       0.236961         6.4480 
  57   0.0000       0.247234         6.7276 
  58   0.0000       0.251340         6.8393 
  59   0.0000       0.261604         7.1186 
  60   0.0000       0.263231         7.1629 
  61   0.0000       0.293274         7.9804 
  62   0.0000       0.297502         8.0954 
  63   0.0000       0.309079         8.4105 
  64   0.0000       0.310310         8.4440 
  65   0.0000       0.327572         8.9137 
  66   0.0000       0.336911         9.1678 
  67   0.0000       0.343808         9.3555 
  68   0.0000       0.348061         9.4712 
  69   0.0000       0.354281         9.6405 
  70   0.0000       0.483924        13.1683 
  71   0.0000       0.523216        14.2374 
  72   0.0000       0.528039        14.3687 
  73   0.0000       0.531904        14.4738 
  74   0.0000       0.539178        14.6718 
  75   0.0000       0.543948        14.8016 
  76   0.0000       0.547196        14.8900 
  77   0.0000       0.552820        15.0430 
  78   0.0000       0.558120        15.1872 
  79   0.0000       0.577109        15.7039 
  80   0.0000       0.584750        15.9119 
  81   0.0000       0.634657        17.2699 
  82   0.0000       0.645251        17.5582 
  83   0.0000       0.661354        17.9963 
  84   0.0000       0.663271        18.0485 
  85   0.0000       0.672782        18.3073 
  86   0.0000       0.673162        18.3177 
  87   0.0000       0.674865        18.3640 
  88   0.0000       0.686558        18.6822 
  89   0.0000       0.690365        18.7858 
  90   0.0000       0.699158        19.0251 
  91   0.0000       0.713969        19.4281 
  92   0.0000       0.773814        21.0565 
  93   0.0000       0.786077        21.3903 
  94   0.0000       0.800660        21.7871 
  95   0.0000       0.805077        21.9073 
  96   0.0000       0.814204        22.1556 
  97   0.0000       0.819920        22.3112 
  98   0.0000       0.933869        25.4119 
  99   0.0000       0.949942        25.8492 
 100   0.0000       0.955024        25.9875 
 101   0.0000       0.966475        26.2991 
 102   0.0000       0.978326        26.6216 
 103   0.0000       1.003114        27.2961 
 104   0.0000       1.010499        27.4971 
 105   0.0000       1.020906        27.7803 
 106   0.0000       1.025549        27.9066 
 107   0.0000       1.042105        28.3571 
 108   0.0000       1.048040        28.5186 
 109   0.0000       1.065272        28.9875 
 110   0.0000       1.072735        29.1906 
 111   0.0000       1.073498        29.2114 
 112   0.0000       1.074865        29.2486 
 113   0.0000       1.082517        29.4568 
 114   0.0000       1.094121        29.7726 
 115   0.0000       1.107812        30.1451 
 116   0.0000       1.110081        30.2068 
 117   0.0000       1.177217        32.0337 
 118   0.0000       1.185334        32.2546 
 119   0.0000       1.207018        32.8446 
 120   0.0000       1.222476        33.2653 
 121   0.0000       1.311556        35.6893 
 122   0.0000       1.317111        35.8404 
 123   0.0000       1.335449        36.3394 
 124   0.0000       1.338421        36.4203 
 125   0.0000       1.349236        36.7146 
 126   0.0000       1.394751        37.9531 
 127   0.0000       1.400855        38.1192 
 128   0.0000       1.506686        40.9990 
 129   0.0000       1.532455        41.7002 
 130   0.0000       1.614013        43.9195 
 131   0.0000       1.615215        43.9522 
 132   0.0000       1.681641        45.7598 
 133   0.0000       1.693555        46.0840 
 134   0.0000       1.735859        47.2351 
 135   0.0000       1.754288        47.7366 
 136   0.0000       1.839211        50.0475 
 137   0.0000       1.852672        50.4138 
 138   0.0000       1.865909        50.7740 
 139   0.0000       1.868483        50.8440 
 140   0.0000       1.873881        50.9909 
 141   0.0000       1.884619        51.2831 
 142   0.0000       1.917947        52.1900 
 143   0.0000       1.963270        53.4233 
 144   0.0000       2.024653        55.0936 
 145   0.0000       2.039246        55.4907 
 146   0.0000       2.045666        55.6654 
 147   0.0000       2.046853        55.6977 
 148   0.0000       2.072346        56.3914 
 149   0.0000       2.076061        56.4925 
 150   0.0000       2.101797        57.1928 
 151   0.0000       2.118391        57.6443 
 152   0.0000       2.124877        57.8208 
 153   0.0000       2.126028        57.8522 
 154   0.0000       2.141905        58.2842 
 155   0.0000       2.191515        59.6342 
 156   0.0000       2.230764        60.7022 
 157   0.0000       2.236687        60.8634 
 158   0.0000       2.309106        62.8340 
 159   0.0000       2.312568        62.9282 
 160   0.0000       2.315970        63.0207 
 161   0.0000       2.328839        63.3709 
 162   0.0000       2.423348        65.9426 
 163   0.0000       2.452360        66.7321 
 164   0.0000       2.459013        66.9131 
 165   0.0000       2.466479        67.1163 
 166   0.0000       2.520493        68.5861 
 167   0.0000       2.527205        68.7688 
 168   0.0000       2.607262        70.9472 
 169   0.0000       2.607708        70.9593 
 170   0.0000       2.616633        71.2022 
 171   0.0000       2.617366        71.2221 
 172   0.0000       2.650564        72.1255 
 173   0.0000       2.651501        72.1510 
 174   0.0000       2.660834        72.4050 
 175   0.0000       2.663379        72.4742 
 176   0.0000       2.735875        74.4469 
 177   0.0000       2.736863        74.4738 
 178   0.0000       2.881257        78.4030 
 179   0.0000       2.889505        78.6274 
 180   0.0000      13.550892       368.7385 
 181   0.0000      13.573914       369.3650 
 182   0.0000      13.872182       377.4813 
 183   0.0000      13.875645       377.5755 
 184   0.0000      13.895448       378.1144 
 185   0.0000      13.900405       378.2493 
 186   0.0000      14.059684       382.5835 
 187   0.0000      14.076055       383.0289 
 188   0.0000      14.117867       384.1667 
 189   0.0000      14.118173       384.1750 

                    ********************************
                    * MULLIKEN POPULATION ANALYSIS *
                    ********************************

-----------------------
MULLIKEN ATOMIC CHARGES
-----------------------
   0 C :   -0.438526
   1 H :    0.219589
   2 H :    0.221674
   3 C :   -0.440443
   4 H :    0.219037
   5 H :    0.222866
   6 C :   -0.439750
   7 H :    0.221988
   8 H :    0.214339
   9 C :   -0.428115
  10 H :    0.207600
  11 H :    0.220712
  12 C :   -0.440625
  13 H :    0.221929
  14 H :    0.217725
  15 C :   -0.439750
  16 H :    0.214339
  17 H :    0.221988
  18 C :   -0.440443
  19 H :    0.222866
  20 H :    0.219037
  21 C :   -0.438526
  22 H :    0.221674
  23 H :    0.219589
  24 C :   -0.440625
  25 H :    0.217725
  26 H :    0.221929
  27 C :   -0.428115
  28 H :    0.220712
  29 H :    0.207600
Sum of atomic charges:   -0.0000000

--------------------------------
MULLIKEN REDUCED ORBITAL CHARGES
--------------------------------
  0 C s       :     3.327538  s :     3.327538
      pz      :     1.014988  p :     3.069143
      px      :     0.914638
      py      :     1.139517
      dz2     :     0.004305  d :     0.041845
      dxz     :     0.009383
      dyz     :     0.013626
      dx2y2   :     0.010411
      dxy     :     0.004121
  1 H s       :     0.780411  s :     0.780411
  2 H s       :     0.778326  s :     0.778326
  3 C s       :     3.328111  s :     3.328111
      pz      :     0.935254  p :     3.070309
      px      :     0.993099
      py      :     1.141956
      dz2     :     0.010602  d :     0.042023
      dxz     :     0.007972
      dyz     :     0.006166
      dx2y2   :     0.005755
      dxy     :     0.011528
  4 H s       :     0.780963  s :     0.780963
  5 H s       :     0.777134  s :     0.777134
  6 C s       :     3.333349  s :     3.333349
      pz      :     0.962607  p :     3.062963
      px      :     1.010573
      py      :     1.089783
      dz2     :     0.009898  d :     0.043439
      dxz     :     0.008610
      dyz     :     0.007570
      dx2y2   :     0.010018
      dxy     :     0.007343
  7 H s       :     0.778012  s :     0.778012
  8 H s       :     0.785661  s :     0.785661
  9 C s       :     3.326146  s :     3.326146
      pz      :     1.064166  p :     3.058095
      px      :     0.941156
      py      :     1.052772
      dz2     :     0.011862  d :     0.043875
      dxz     :     0.009921
      dyz     :     0.004004
      dx2y2   :     0.011502
      dxy     :     0.006586
 10 H s       :     0.792400  s :     0.792400
 11 H s       :     0.779288  s :     0.779288
 12 C s       :     3.332117  s :     3.332117
      pz      :     0.932869  p :     3.065284
      px      :     1.033185
      py      :     1.099231
      dz2     :     0.008554  d :     0.043224
      dxz     :     0.010311
      dyz     :     0.007032
      dx2y2   :     0.008438
      dxy     :     0.008889
 13 H s       :     0.778071  s :     0.778071
 14 H s       :     0.782275  s :     0.782275
 15 C s       :     3.333349  s :     3.333349
      pz      :     0.962607  p :     3.062963
      px      :     1.010573
      py      :     1.089783
      dz2     :     0.009898  d :     0.043439
      dxz     :     0.008610
      dyz     :     0.007570
      dx2y2   :     0.010018
      dxy     :     0.007343
 16 H s       :     0.785661  s :     0.785661
 17 H s       :     0.778012  s :     0.778012
 18 C s       :     3.328111  s :     3.328111
      pz      :     0.935254  p :     3.070309
      px      :     0.993099
      py      :     1.141956
      dz2     :     0.010602  d :     0.042023
      dxz     :     0.007972
      dyz     :     0.006166
      dx2y2   :     0.005755
      dxy     :     0.011528
 19 H s       :     0.777134  s :     0.777134
 20 H s       :     0.780963  s :     0.780963
 21 C s       :     3.327538  s :     3.327538
      pz      :     1.014988  p :     3.069143
      px      :     0.914638
      py      :     1.139517
      dz2     :     0.004305  d :     0.041845
      dxz     :     0.009383
      dyz     :     0.013626
      dx2y2   :     0.010411
      dxy     :     0.004121
 22 H s       :     0.778326  s :     0.778326
 23 H s       :     0.780411  s :     0.780411
 24 C s       :     3.332117  s :     3.332117
      pz      :     0.932869  p :     3.065284
      px      :     1.033185
      py      :     1.099231
      dz2     :     0.008554  d :     0.043224
      dxz     :     0.010311
      dyz     :     0.007032
      dx2y2   :     0.008438
      dxy     :     0.008889
 25 H s       :     0.782275  s :     0.782275
 26 H s       :     0.778071  s :     0.778071
 27 C s       :     3.326145  s :     3.326145
      pz      :     1.064166  p :     3.058095
      px      :     0.941156
      py      :     1.052773
      dz2     :     0.011862  d :     0.043875
      dxz     :     0.009921
      dyz     :     0.004004
      dx2y2   :     0.011502
      dxy     :     0.006586
 28 H s       :     0.779288  s :     0.779288
 29 H s       :     0.792400  s :     0.792400


                     *******************************
                     * LOEWDIN POPULATION ANALYSIS *
                     *******************************

----------------------
LOEWDIN ATOMIC CHARGES
----------------------
   0 C :   -0.246195
   1 H :    0.124001
   2 H :    0.122723
   3 C :   -0.246195
   4 H :    0.123750
   5 H :    0.123112
   6 C :   -0.244464
   7 H :    0.124096
   8 H :    0.117846
   9 C :   -0.243203
  10 H :    0.120362
  11 H :    0.123836
  12 C :   -0.244527
  13 H :    0.124021
  14 H :    0.120838
  15 C :   -0.244464
  16 H :    0.117846
  17 H :    0.124096
  18 C :   -0.246195
  19 H :    0.123112
  20 H :    0.123750
  21 C :   -0.246195
  22 H :    0.122723
  23 H :    0.124001
  24 C :   -0.244527
  25 H :    0.120838
  26 H :    0.124021
  27 C :   -0.243203
  28 H :    0.123836
  29 H :    0.120362

-------------------------------
LOEWDIN REDUCED ORBITAL CHARGES
-------------------------------
  0 C s       :     2.917319  s :     2.917319
      pz      :     1.076602  p :     3.244396
      px      :     1.048085
      py      :     1.119709
      dz2     :     0.009274  d :     0.084481
      dxz     :     0.022286
      dyz     :     0.024417
      dx2y2   :     0.020382
      dxy     :     0.008121
  1 H s       :     0.875999  s :     0.875999
  2 H s       :     0.877277  s :     0.877277
  3 C s       :     2.917051  s :     2.917051
      pz      :     1.055363  p :     3.244175
      px      :     1.069058
      py      :     1.119754
      dz2     :     0.023658  d :     0.084970
      dxz     :     0.017572
      dyz     :     0.011639
      dx2y2   :     0.011251
      dxy     :     0.020849
  4 H s       :     0.876250  s :     0.876250
  5 H s       :     0.876888  s :     0.876888
  6 C s       :     2.915299  s :     2.915299
      pz      :     1.064193  p :     3.240565
      px      :     1.072939
      py      :     1.103433
      dz2     :     0.023031  d :     0.088600
      dxz     :     0.017005
      dyz     :     0.014773
      dx2y2   :     0.019031
      dxy     :     0.014760
  7 H s       :     0.875904  s :     0.875904
  8 H s       :     0.882154  s :     0.882154
  9 C s       :     2.914862  s :     2.914862
      pz      :     1.084858  p :     3.238608
      px      :     1.057356
      py      :     1.096394
      dz2     :     0.022991  d :     0.089734
      dxz     :     0.020823
      dyz     :     0.007635
      dx2y2   :     0.022926
      dxy     :     0.015358
 10 H s       :     0.879638  s :     0.879638
 11 H s       :     0.876164  s :     0.876164
 12 C s       :     2.915449  s :     2.915449
      pz      :     1.055368  p :     3.241029
      px      :     1.079488
      py      :     1.106173
      dz2     :     0.017676  d :     0.088048
      dxz     :     0.024451
      dyz     :     0.014326
      dx2y2   :     0.014795
      dxy     :     0.016800
 13 H s       :     0.875979  s :     0.875979
 14 H s       :     0.879162  s :     0.879162
 15 C s       :     2.915299  s :     2.915299
      pz      :     1.064193  p :     3.240565
      px      :     1.072939
      py      :     1.103433
      dz2     :     0.023031  d :     0.088600
      dxz     :     0.017005
      dyz     :     0.014773
      dx2y2   :     0.019031
      dxy     :     0.014760
 16 H s       :     0.882154  s :     0.882154
 17 H s       :     0.875904  s :     0.875904
 18 C s       :     2.917051  s :     2.917051
      pz      :     1.055363  p :     3.244175
      px      :     1.069058
      py      :     1.119754
      dz2     :     0.023658  d :     0.084970
      dxz     :     0.017572
      dyz     :     0.011639
      dx2y2   :     0.011251
      dxy     :     0.020849
 19 H s       :     0.876888  s :     0.876888
 20 H s       :     0.876250  s :     0.876250
 21 C s       :     2.917319  s :     2.917319
      pz      :     1.076602  p :     3.244396
      px      :     1.048085
      py      :     1.119709
      dz2     :     0.009274  d :     0.084481
      dxz     :     0.022286
      dyz     :     0.024417
      dx2y2   :     0.020382
      dxy     :     0.008121
 22 H s       :     0.877277  s :     0.877277
 23 H s       :     0.875999  s :     0.875999
 24 C s       :     2.915449  s :     2.915449
      pz      :     1.055368  p :     3.241029
      px      :     1.079488
      py      :     1.106173
      dz2     :     0.017676  d :     0.088048
      dxz     :     0.024451
      dyz     :     0.014326
      dx2y2   :     0.014795
      dxy     :     0.016800
 25 H s       :     0.879162  s :     0.879162
 26 H s       :     0.875979  s :     0.875979
 27 C s       :     2.914862  s :     2.914862
      pz      :     1.084858  p :     3.238608
      px      :     1.057356
      py      :     1.096394
      dz2     :     0.022991  d :     0.089734
      dxz     :     0.020823
      dyz     :     0.007635
      dx2y2   :     0.022926
      dxy     :     0.015358
 28 H s       :     0.876164  s :     0.876164
 29 H s       :     0.879638  s :     0.879638


                      *****************************
                      * MAYER POPULATION ANALYSIS *
                      *****************************

  NA   - Mulliken gross atomic population
  ZA   - Total nuclear charge
  QA   - Mulliken gross atomic charge
  VA   - Mayer's total valence
  BVA  - Mayer's bonded valence
  FA   - Mayer's free valence

  ATOM       NA         ZA         QA         VA         BVA        FA
  0 C      6.4385     6.0000    -0.4385     3.7070     3.7070    -0.0000
  1 H      0.7804     1.0000     0.2196     0.9085     0.9085    -0.0000
  2 H      0.7783     1.0000     0.2217     0.9135     0.9135    -0.0000
  3 C      6.4404     6.0000    -0.4404     3.7101     3.7101    -0.0000
  4 H      0.7810     1.0000     0.2190     0.9079     0.9079    -0.0000
  5 H      0.7771     1.0000     0.2229     0.9133     0.9133    -0.0000
  6 C      6.4398     6.0000    -0.4398     3.7185     3.7185    -0.0000
  7 H      0.7780     1.0000     0.2220     0.9134     0.9134    -0.0000
  8 H      0.7857     1.0000     0.2143     0.9087     0.9087    -0.0000
  9 C      6.4281     6.0000    -0.4281     3.7233     3.7233     0.0000
 10 H      0.7924     1.0000     0.2076     0.9087     0.9087     0.0000
 11 H      0.7793     1.0000     0.2207     0.9141     0.9141    -0.0000
 12 C      6.4406     6.0000    -0.4406     3.7185     3.7185    -0.0000
 13 H      0.7781     1.0000     0.2219     0.9135     0.9135    -0.0000
 14 H      0.7823     1.0000     0.2177     0.9067     0.9067    -0.0000
 15 C      6.4398     6.0000    -0.4398     3.7185     3.7185     0.0000
 16 H      0.7857     1.0000     0.2143     0.9087     0.9087     0.0000
 17 H      0.7780     1.0000     0.2220     0.9134     0.9134     0.0000
 18 C      6.4404     6.0000    -0.4404     3.7101     3.7101    -0.0000
 19 H      0.7771     1.0000     0.2229     0.9133     0.9133    -0.0000
 20 H      0.7810     1.0000     0.2190     0.9079     0.9079    -0.0000
 21 C      6.4385     6.0000    -0.4385     3.7070     3.7070     0.0000
 22 H      0.7783     1.0000     0.2217     0.9135     0.9135    -0.0000
 23 H      0.7804     1.0000     0.2196     0.9085     0.9085    -0.0000
 24 C      6.4406     6.0000    -0.4406     3.7185     3.7185    -0.0000
 25 H      0.7823     1.0000     0.2177     0.9067     0.9067    -0.0000
 26 H      0.7781     1.0000     0.2219     0.9135     0.9135    -0.0000
 27 C      6.4281     6.0000    -0.4281     3.7233     3.7233    -0.0000
 28 H      0.7793     1.0000     0.2207     0.9141     0.9141    -0.0000
 29 H      0.7924     1.0000     0.2076     0.9087     0.9087     0.0000

  Mayer bond orders larger than 0.100000
B(  0-C ,  1-H ) :   0.9302 B(  0-C ,  2-H ) :   0.9251 B(  0-C ,  3-C ) :   0.9611 
B(  0-C , 12-C ) :   0.9744 B(  3-C ,  4-H ) :   0.9290 B(  3-C ,  5-H ) :   0.9251 
B(  3-C ,  6-C ) :   0.9776 B(  6-C ,  7-H ) :   0.9297 B(  6-C ,  8-H ) :   0.9114 
B(  6-C ,  9-C ) :   0.9789 B(  9-C , 10-H ) :   0.9214 B(  9-C , 11-H ) :   0.9294 
B(  9-C , 12-C ) :   0.9798 B( 12-C , 13-H ) :   0.9303 B( 12-C , 14-H ) :   0.9139 
B( 15-C , 16-H ) :   0.9114 B( 15-C , 17-H ) :   0.9297 B( 15-C , 18-C ) :   0.9776 
B( 15-C , 27-C ) :   0.9789 B( 18-C , 19-H ) :   0.9251 B( 18-C , 20-H ) :   0.9290 
B( 18-C , 21-C ) :   0.9611 B( 21-C , 22-H ) :   0.9251 B( 21-C , 23-H ) :   0.9302 
B( 21-C , 24-C ) :   0.9744 B( 24-C , 25-H ) :   0.9139 B( 24-C , 26-H ) :   0.9303 
B( 24-C , 27-C ) :   0.9798 B( 27-C , 28-H ) :   0.9294 B( 27-C , 29-H ) :   0.9214 


-------
TIMINGS
-------

Total SCF time: 0 days 0 hours 1 min 56 sec 

Total time                  ....     116.748 sec
Sum of individual times     ....     110.974 sec  ( 95.1%)

Fock matrix formation       ....      96.088 sec  ( 82.3%)
  Split-RI-J                ....       8.599 sec  (  8.9% of F)
  Chain of spheres X        ....      55.271 sec  ( 57.5% of F)
  XC integration            ....      21.699 sec  ( 22.6% of F)
    Basis function eval.    ....       5.816 sec  ( 26.8% of XC)
    Density eval.           ....       3.160 sec  ( 14.6% of XC)
    XC-Functional eval.     ....       1.764 sec  (  8.1% of XC)
    XC-Potential eval.      ....       1.744 sec  (  8.0% of XC)
Diagonalization             ....       0.378 sec  (  0.3%)
Density matrix formation    ....       0.087 sec  (  0.1%)
Population analysis         ....       0.019 sec  (  0.0%)
Initial guess               ....       0.085 sec  (  0.1%)
Orbital Transformation      ....       0.000 sec  (  0.0%)
Orbital Orthonormalization  ....       0.000 sec  (  0.0%)
DIIS solution               ....       1.447 sec  (  1.2%)
SOSCF solution              ....       0.508 sec  (  0.4%)
Grid generation             ....      12.361 sec  ( 10.6%)

Maximum memory used throughout the entire SCF-calculation: 72.3 MB


-------------------------------------------------------------------------------
                          DFT DISPERSION CORRECTION                            
                                                                               
                              DFTD3 V3.1  Rev 1                                
                          USING Becke-Johnson damping                          
-------------------------------------------------------------------------------
The PBEh-3c composite method is recognized
Using three-body term ABC
Active option DFTDOPT                   ...         4   

molecular C6(AA) [au] = 6042.072728 


            DFT-D V3
 parameters
 s6 scaling factor         :     1.0000 
 a1 scaling factor         :     0.4860 
 s8 scaling factor         :     0.0000 
 a2 scaling factor         :     4.5000 
 Damping factor alpha9(ATM):    16.0000 
 ad hoc parameters k1-k3   :    16.0000     1.3333    -4.0000 

 Edisp/kcal,au: -10.449701453633  -0.016652657483 
 E6   /kcal   : -10.610492131 
 E8   /kcal   :  -0.000000000 
 E6(ABC)      :   0.160790677 
 % E8         :   0.000000000 
 % E6(ABC)    :  -1.538710724 

-------------------------   ----------------
Dispersion correction           -0.016652657
-------------------------   ----------------

------------------   -----------------
gCP correction             0.046463111
------------------   -----------------

-------------------------   --------------------
FINAL SINGLE POINT ENERGY      -392.256164084483
-------------------------   --------------------


                            ***************************************
                            *     ORCA property calculations      *
                            ***************************************

                                    ---------------------
                                    Active property flags
                                    ---------------------
   (+) Dipole Moment


------------------------------------------------------------------------------
                       ORCA ELECTRIC PROPERTIES CALCULATION
------------------------------------------------------------------------------

Dipole Moment Calculation                       ... on
Quadrupole Moment Calculation                   ... off
Polarizability Calculation                      ... off
GBWName                                         ... pbeh-3c.gbw
Electron density                                ... pbeh-3c.scfp
The origin for moment calculation is the CENTER OF MASS  = ( 0.000000,  0.000000 -0.008935)

-------------
DIPOLE MOMENT
-------------
                                X             Y             Z
Electronic contribution:      0.00000       0.00000      -0.15006
Nuclear contribution   :     -0.00000      -0.00000       0.14670
                        -----------------------------------------
Total Dipole Moment    :      0.00000       0.00000      -0.00336
                        -----------------------------------------
Magnitude (a.u.)       :      0.00336
Magnitude (Debye)      :      0.00854



--------------------
Rotational spectrum 
--------------------
 
Rotational constants in cm-1:     0.065546     0.021465     0.021407 
Rotational constants in MHz :  1965.018982   643.498797   641.767192 

 Dipole components along the rotational axes: 
x,y,z [a.u.] :     0.000000     0.000000    -0.003361 
x,y,z [Debye]:     0.000000     0.000000    -0.008542 

 

Timings for individual modules:

Sum of individual times         ...      120.321 sec (=   2.005 min)
GTO integral calculation        ...        3.067 sec (=   0.051 min)   2.5 %
SCF iterations                  ...      117.254 sec (=   1.954 min)  97.5 %
                             ****ORCA TERMINATED NORMALLY****
TOTAL RUN TIME: 0 days 0 hours 2 minutes 4 seconds 631 msec
