
                                 *****************
                                 * O   R   C   A *
                                 *****************

                                            #,                                       
                                            ###                                      
                                            ####                                     
                                            #####                                    
                                            ######                                   
                                           ########,                                 
                                     ,,################,,,,,                         
                               ,,#################################,,                 
                          ,,##########################################,,             
                       ,#########################################, ''#####,          
                    ,#############################################,,   '####,        
                  ,##################################################,,,,####,       
                ,###########''''           ''''###############################       
              ,#####''   ,,,,##########,,,,          '''####'''          '####       
            ,##' ,,,,###########################,,,                        '##       
           ' ,,###''''                  '''############,,,                           
         ,,##''                                '''############,,,,        ,,,,,,###''
      ,#''                                            '''#######################'''  
     '                                                          ''''####''''         
             ,#######,   #######,   ,#######,      ##                                
            ,#'     '#,  ##    ##  ,#'     '#,    #''#        ######   ,####,        
            ##       ##  ##   ,#'  ##            #'  '#       #        #'  '#        
            ##       ##  #######   ##           ,######,      #####,   #    #        
            '#,     ,#'  ##    ##  '#,     ,#' ,#      #,         ##   #,  ,#        
             '#######'   ##     ##  '#######'  #'      '#     #####' # '####'        



                  #######################################################
                  #                        -***-                        #
                  #          Department of theory and spectroscopy      #
                  #    Directorship and core code : Frank Neese         #
                  #        Max Planck Institute fuer Kohlenforschung    #
                  #                Kaiser Wilhelm Platz 1               #
                  #                 D-45470 Muelheim/Ruhr               #
                  #                      Germany                        #
                  #                                                     #
                  #                  All rights reserved                #
                  #                        -***-                        #
                  #######################################################


                         Program Version 5.0.3 -  RELEASE  -


 With contributions from (in alphabetic order):
   Daniel Aravena         : Magnetic Suceptibility
   Michael Atanasov       : Ab Initio Ligand Field Theory (pilot matlab implementation)
   Alexander A. Auer      : GIAO ZORA, VPT2 properties, NMR spectrum
   Ute Becker             : Parallelization
   Giovanni Bistoni       : ED, misc. LED, open-shell LED, HFLD
   Martin Brehm           : Molecular dynamics
   Dmytro Bykov           : SCF Hessian
   Vijay G. Chilkuri      : MRCI spin determinant printing, contributions to CSF-ICE
   Dipayan Datta          : RHF DLPNO-CCSD density
   Achintya Kumar Dutta   : EOM-CC, STEOM-CC
   Dmitry Ganyushin       : Spin-Orbit,Spin-Spin,Magnetic field MRCI
   Miquel Garcia          : C-PCM and meta-GGA Hessian, CC/C-PCM, Gaussian charge scheme
   Yang Guo               : DLPNO-NEVPT2, F12-NEVPT2, CIM, IAO-localization
   Andreas Hansen         : Spin unrestricted coupled pair/coupled cluster methods
   Benjamin Helmich-Paris : MC-RPA, TRAH-SCF, COSX integrals
   Lee Huntington         : MR-EOM, pCC
   Robert Izsak           : Overlap fitted RIJCOSX, COSX-SCS-MP3, EOM
   Marcus Kettner         : VPT2
   Christian Kollmar      : KDIIS, OOCD, Brueckner-CCSD(T), CCSD density, CASPT2, CASPT2-K
   Simone Kossmann        : Meta GGA functionals, TD-DFT gradient, OOMP2, MP2 Hessian
   Martin Krupicka        : Initial AUTO-CI
   Lucas Lang             : DCDCAS
   Marvin Lechner         : AUTO-CI (C++ implementation), FIC-MRCC
   Dagmar Lenk            : GEPOL surface, SMD
   Dimitrios Liakos       : Extrapolation schemes; Compound Job, initial MDCI parallelization
   Dimitrios Manganas     : Further ROCIS development; embedding schemes
   Dimitrios Pantazis     : SARC Basis sets
   Anastasios Papadopoulos: AUTO-CI, single reference methods and gradients
   Taras Petrenko         : DFT Hessian,TD-DFT gradient, ASA, ECA, R-Raman, ABS, FL, XAS/XES, NRVS
   Peter Pinski           : DLPNO-MP2, DLPNO-MP2 Gradient
   Christoph Reimann      : Effective Core Potentials
   Marius Retegan         : Local ZFS, SOC
   Christoph Riplinger    : Optimizer, TS searches, QM/MM, DLPNO-CCSD(T), (RO)-DLPNO pert. Triples
   Tobias Risthaus        : Range-separated hybrids, TD-DFT gradient, RPA, STAB
   Michael Roemelt        : Original ROCIS implementation
   Masaaki Saitow         : Open-shell DLPNO-CCSD energy and density
   Barbara Sandhoefer     : DKH picture change effects
   Avijit Sen             : IP-ROCIS
   Kantharuban Sivalingam : CASSCF convergence, NEVPT2, FIC-MRCI
   Bernardo de Souza      : ESD, SOC TD-DFT
   Georgi Stoychev        : AutoAux, RI-MP2 NMR, DLPNO-MP2 response
   Willem Van den Heuvel  : Paramagnetic NMR
   Boris Wezisla          : Elementary symmetry handling
   Frank Wennmohs         : Technical directorship


 We gratefully acknowledge several colleagues who have allowed us to
 interface, adapt or use parts of their codes:
   Stefan Grimme, W. Hujo, H. Kruse, P. Pracht,  : VdW corrections, initial TS optimization,
                  C. Bannwarth, S. Ehlert          DFT functionals, gCP, sTDA/sTD-DF
   Ed Valeev, F. Pavosevic, A. Kumar             : LibInt (2-el integral package), F12 methods
   Garnet Chan, S. Sharma, J. Yang, R. Olivares  : DMRG
   Ulf Ekstrom                                   : XCFun DFT Library
   Mihaly Kallay                                 : mrcc  (arbitrary order and MRCC methods)
   Jiri Pittner, Ondrej Demel                    : Mk-CCSD
   Frank Weinhold                                : gennbo (NPA and NBO analysis)
   Christopher J. Cramer and Donald G. Truhlar   : smd solvation model
   Lars Goerigk                                  : TD-DFT with DH, B97 family of functionals
   V. Asgeirsson, H. Jonsson                     : NEB implementation
   FAccTs GmbH                                   : IRC, NEB, NEB-TS, DLPNO-Multilevel, CI-OPT
                                                   MM, QMMM, 2- and 3-layer-ONIOM, Crystal-QMMM,
                                                   LR-CPCM, SF, NACMEs, symmetry and pop. for TD-DFT,
                                                   nearIR, NL-DFT gradient (VV10), updates on ESD,
                                                   ML-optimized integration grids
   S Lehtola, MJT Oliveira, MAL Marques          : LibXC Library
   Liviu Ungur et al                             : ANISO software


 Your calculation uses the libint2 library for the computation of 2-el integrals
 For citations please refer to: http://libint.valeyev.net

 Your ORCA version has been built with support for libXC version: 5.1.0
 For citations please refer to: https://tddft.org/programs/libxc/

 This ORCA versions uses:
   CBLAS   interface :  Fast vector & matrix operations
   LAPACKE interface :  Fast linear algebra routines
   SCALAPACK package :  Parallel linear algebra routines
   Shared memory     :  Shared parallel matrices
   BLAS/LAPACK       :  OpenBLAS 0.3.15  USE64BITINT DYNAMIC_ARCH NO_AFFINITY Haswell SINGLE_THREADED
        Core in use  :  Haswell
   Copyright (c) 2011-2014, The OpenBLAS Project




***************************************
The coordinates will be read from file: P30.xyz
***************************************


Your calculation utilizes the geometrical counterpoise correction gCP
Please cite in your paper:
H.Kruse, S. Grimme J.Chem.Phys., 136, (2012), 154101 
   

Your calculation utilizes the atom-pairwise dispersion correction
with the Becke-Johnson damping scheme (D3BJ)
Cite in your paper:
S.Grimme, S.Ehrlich, L.Goerigk, J Comput Chem, (2011), 32, 1456–1465 
S.Grimme, J.Antony, S.Ehrlich and H.Krieg, J.Chem.Phys., 132, (2010), 154104 
   

Your calculation employs the composite approach PBEh-3c.
Please cite in your paper:
S. Grimme, J. G. Brandenburg, C. Bannwarth, A. Hansen J.Chem.Phys., 143, (2015), 054107 
   

================================================================================

----- Orbital basis set information -----
Your calculation utilizes the basis: def2-mSVP

----- AuxJ basis set information -----
Your calculation utilizes the auxiliary basis: def2/J
   F. Weigend, Phys. Chem. Chem. Phys. 8, 1057 (2006).

================================================================================
                                        WARNINGS
                       Please study these warnings very carefully!
================================================================================


INFO   : the flag for use of the SHARK integral package has been found!

================================================================================
                                       INPUT FILE
================================================================================
NAME = pbeh-3c.inp
|  1> ! PBEh-3c def2/J TightSCF DefGrid3
|  2> 
|  3> %maxcore 60000
|  4> 
|  5> %pal
|  6> nprocs 4
|  7> end
|  8> 
|  9> *xyzfile 0 1 P30.xyz
| 10> 
| 11>                          ****END OF INPUT****
================================================================================

                       ****************************
                       * Single Point Calculation *
                       ****************************

---------------------------------
CARTESIAN COORDINATES (ANGSTROEM)
---------------------------------
  O      0.112061    0.000478    2.438848
  C      0.678721   -0.001303    1.362865
  N      0.073257   -0.003193    0.144299
  C     -1.375922   -0.000302    0.041107
  C      0.838025    0.000727   -1.086955
  H      1.780346   -0.002279    1.276787
  H     -1.791458   -0.017893    1.045909
  H     -1.723633   -0.878771   -0.511055
  H     -1.724207    0.897602   -0.478929
  H      1.903712   -0.002383   -0.856631
  H      0.612721   -0.883587   -1.691688
  H      0.616378    0.890903   -1.684556

----------------------------
CARTESIAN COORDINATES (A.U.)
----------------------------
  NO LB      ZA    FRAG     MASS         X           Y           Z
   0 O     8.0000    0    15.999    0.211765    0.000903    4.608754
   1 C     6.0000    0    12.011    1.282598   -0.002462    2.575442
   2 N     7.0000    0    14.007    0.138436   -0.006034    0.272686
   3 C     6.0000    0    12.011   -2.600117   -0.000570    0.077681
   4 C     6.0000    0    12.011    1.583637    0.001375   -2.054047
   5 H     1.0000    0     1.008    3.364366   -0.004307    2.412778
   6 H     1.0000    0     1.008   -3.385365   -0.033813    1.976481
   7 H     1.0000    0     1.008   -3.257195   -1.660636   -0.965754
   8 H     1.0000    0     1.008   -3.258279    1.696222   -0.905045
   9 H     1.0000    0     1.008    3.597495   -0.004502   -1.618798
  10 H     1.0000    0     1.008    1.157874   -1.669737   -3.196828
  11 H     1.0000    0     1.008    1.164785    1.683563   -3.183349

--------------------------------
INTERNAL COORDINATES (ANGSTROEM)
--------------------------------
 O      0   0   0     0.000000000000     0.00000000     0.00000000
 C      1   0   0     1.216078004237     0.00000000     0.00000000
 N      2   1   0     1.360695761971   125.80555467     0.00000000
 C      3   2   1     1.452851873147   120.49396852     0.13316961
 C      3   2   1     1.449438598706   121.73273984   179.72252083
 H      2   1   3     1.104982751001   122.24115510   180.04455852
 H      4   3   2     1.087476871472   108.39004116   358.82580456
 H      4   3   2     1.094300229618   110.55983434   238.94726624
 H      4   3   2     1.094518750502   110.65766519   118.67869762
 H      5   3   2     1.090297512027   109.64938680     0.41830189
 H      5   3   2     1.094749268939   111.00618206   120.15507821
 H      5   3   2     1.094836349604   111.04203232   240.66213433

---------------------------
INTERNAL COORDINATES (A.U.)
---------------------------
 O      0   0   0     0.000000000000     0.00000000     0.00000000
 C      1   0   0     2.298054385493     0.00000000     0.00000000
 N      2   1   0     2.571342341713   125.80555467     0.00000000
 C      3   2   1     2.745492153402   120.49396852     0.13316961
 C      3   2   1     2.739041999488   121.73273984   179.72252083
 H      2   1   3     2.088114782099   122.24115510   180.04455852
 H      4   3   2     2.055033464055   108.39004116   358.82580456
 H      4   3   2     2.067927742264   110.55983434   238.94726624
 H      4   3   2     2.068340686890   110.65766519   118.67869762
 H      5   3   2     2.060363702227   109.64938680     0.41830189
 H      5   3   2     2.068776303606   111.00618206   120.15507821
 H      5   3   2     2.068940862214   111.04203232   240.66213433

---------------------
BASIS SET INFORMATION
---------------------
There are 4 groups of distinct atoms

 Group   1 Type O   : 8s4p1d contracted to 4s2p1d pattern {5111/31/1}
 Group   2 Type C   : 8s4p1d contracted to 4s2p1d pattern {5111/31/1}
 Group   3 Type N   : 8s4p1d contracted to 4s2p1d pattern {5111/31/1}
 Group   4 Type H   : 4s contracted to 2s pattern {31}

Atom   0O    basis set group =>   1
Atom   1C    basis set group =>   2
Atom   2N    basis set group =>   3
Atom   3C    basis set group =>   2
Atom   4C    basis set group =>   2
Atom   5H    basis set group =>   4
Atom   6H    basis set group =>   4
Atom   7H    basis set group =>   4
Atom   8H    basis set group =>   4
Atom   9H    basis set group =>   4
Atom  10H    basis set group =>   4
Atom  11H    basis set group =>   4
---------------------------------
AUXILIARY/J BASIS SET INFORMATION
---------------------------------
There are 4 groups of distinct atoms

 Group   1 Type O   : 12s5p4d2f1g contracted to 6s4p3d1f1g pattern {711111/2111/211/2/1}
 Group   2 Type C   : 12s5p4d2f1g contracted to 6s4p3d1f1g pattern {711111/2111/211/2/1}
 Group   3 Type N   : 12s5p4d2f1g contracted to 6s4p3d1f1g pattern {711111/2111/211/2/1}
 Group   4 Type H   : 5s2p1d contracted to 3s1p1d pattern {311/2/1}

Atom   0O    basis set group =>   1
Atom   1C    basis set group =>   2
Atom   2N    basis set group =>   3
Atom   3C    basis set group =>   2
Atom   4C    basis set group =>   2
Atom   5H    basis set group =>   4
Atom   6H    basis set group =>   4
Atom   7H    basis set group =>   4
Atom   8H    basis set group =>   4
Atom   9H    basis set group =>   4
Atom  10H    basis set group =>   4
Atom  11H    basis set group =>   4


           ************************************************************
           *        Program running with 4 parallel MPI-processes     *
           *              working on a common directory               *
           ************************************************************
------------------------------------------------------------------------------
                           ORCA GTO INTEGRAL CALCULATION
                           -- RI-GTO INTEGRALS CHOSEN --
------------------------------------------------------------------------------
------------------------------------------------------------------------------
                   ___                                                        
                  /   \      - P O W E R E D   B Y -                         
                 /     \                                                     
                 |  |  |   _    _      __       _____    __    __             
                 |  |  |  | |  | |    /  \     |  _  \  |  |  /  |          
                  \  \/   | |  | |   /    \    | | | |  |  | /  /          
                 / \  \   | |__| |  /  /\  \   | |_| |  |  |/  /          
                |  |  |   |  __  | /  /__\  \  |    /   |      \           
                |  |  |   | |  | | |   __   |  |    \   |  |\   \          
                \     /   | |  | | |  |  |  |  | |\  \  |  | \   \       
                 \___/    |_|  |_| |__|  |__|  |_| \__\ |__|  \__/        
                                                                              
                      - O R C A' S   B I G   F R I E N D -                    
                                      &                                       
                       - I N T E G R A L  F E E D E R -                       
                                                                              
 v1 FN, 2020, v2 2021                                                         
------------------------------------------------------------------------------


Reading SHARK input file pbeh-3c.SHARKINP.tmp ... ok
----------------------
SHARK INTEGRAL PACKAGE
----------------------

Number of atoms                             ...     12
Number of basis functions                   ...     89
Number of shells                            ...     49
Maximum angular momentum                    ...      2
Integral batch strategy                     ... SHARK/LIBINT Hybrid
RI-J (if used) integral strategy            ... SPLIT-RIJ (Revised 2003 algorithm where possible)
Printlevel                                  ...      1
Contraction scheme used                     ... SEGMENTED contraction
Coulomb Range Separation                    ... NOT USED
Exchange Range Separation                   ... NOT USED
Finite Nucleus Model                        ... NOT USED
Auxiliary Coulomb fitting basis             ... AVAILABLE
   # of basis functions in Aux-J            ...    322
   # of shells in Aux-J                     ...    110
   Maximum angular momentum in Aux-J        ...      4
Auxiliary J/K fitting basis                 ... NOT available
Auxiliary Correlation fitting basis         ... NOT available
Auxiliary 'external' fitting basis          ... NOT available
Integral threshold                          ...     2.500000e-11
Primitive cut-off                           ...     2.500000e-12
Primitive pair pre-selection threshold      ...     2.500000e-12

Calculating pre-screening integrals         ... done (  0.0 sec) Dimension = 49
Organizing shell pair data                  ... done (  0.2 sec)
Shell pair information
Total number of shell pairs                 ...      1225
Shell pairs after pre-screening             ...      1176
Total number of primitive shell pairs       ...      4457
Primitive shell pairs kept                  ...      3251
          la=0 lb=0:    551 shell pairs
          la=1 lb=0:    338 shell pairs
          la=1 lb=1:     55 shell pairs
          la=2 lb=0:    167 shell pairs
          la=2 lb=1:     50 shell pairs
          la=2 lb=2:     15 shell pairs

Calculating one electron integrals          ... done (  0.0 sec)
Calculating RI/J V-Matrix + Cholesky decomp.... done (  0.3 sec)
Calculating Nuclear repulsion               ... done (  0.1 sec) ENN=    181.485424864153 Eh

SHARK setup successfully completed in   1.9 seconds

Maximum memory used throughout the entire GTOINT-calculation: 9.9 MB


           ************************************************************
           *        Program running with 4 parallel MPI-processes     *
           *              working on a common directory               *
           ************************************************************
-------------------------------------------------------------------------------
                                 ORCA SCF
-------------------------------------------------------------------------------

------------
SCF SETTINGS
------------
Hamiltonian:
 Density Functional     Method          .... DFT(GTOs)
 Exchange Functional    Exchange        .... PBE
   PBE kappa parameter   XKappa         ....  1.024500
   PBE mue parameter    XMuePBE         ....  0.123457
 Correlation Functional Correlation     .... PBE
   PBE beta parameter  CBetaPBE         ....  0.030000
 LDA part of GGA corr.  LDAOpt          .... PW91-LDA
 Gradients option       PostSCFGGA      .... off
 Hybrid DFT is turned on
   Fraction HF Exchange ScalHFX         ....  0.420000
   Scaling of DF-GGA-X  ScalDFX         ....  0.580000
   Scaling of DF-GGA-C  ScalDFC         ....  1.000000
   Scaling of DF-LDA-C  ScalLDAC        ....  1.000000
   Perturbative correction              ....  0.000000
   Density functional embedding theory  .... OFF
 RI-approximation to the Coulomb term is turned on
   Number of AuxJ basis functions       .... 322
   RIJ-ON(X) (HFX calculated with O(N)) .... on
   Number of AuxJ basis functions       .... 322
   RIJ-COSX (HFX calculated with COS-X)).... on


General Settings:
 Integral files         IntName         .... pbeh-3c
 Hartree-Fock type      HFTyp           .... RHF
 Total Charge           Charge          ....    0
 Multiplicity           Mult            ....    1
 Number of Electrons    NEL             ....   40
 Basis Dimension        Dim             ....   89
 Nuclear Repulsion      ENuc            ....    181.4854248642 Eh

Convergence Acceleration:
 DIIS                   CNVDIIS         .... on
   Start iteration      DIISMaxIt       ....    12
   Startup error        DIISStart       ....  0.200000
   # of expansion vecs  DIISMaxEq       ....     5
   Bias factor          DIISBfac        ....   1.050
   Max. coefficient     DIISMaxC        ....  10.000
 Trust-Rad. Augm. Hess. CNVTRAH         .... auto
   Auto Start mean grad. ratio tolernc. ....  1.125000
   Auto Start start iteration           ....    20
   Auto Start num. interpolation iter.  ....    10
   Max. Number of Micro iterations      ....    16
   Max. Number of Macro iterations      .... Maxiter - #DIIS iter
   Number of Davidson start vectors     ....     2
   Converg. threshold I  (grad. norm)   ....   1.000e-05
   Converg. threshold II (energy diff.) ....   1.000e-08
   Grad. Scal. Fac. for Micro threshold ....   0.100
   Minimum threshold for Micro iter.    ....   0.010
   NR start threshold (gradient norm)   ....   0.001
   Initial trust radius                 ....   0.400
   Minimum AH scaling param. (alpha)    ....   1.000
   Maximum AH scaling param. (alpha)    .... 1000.000
   Orbital update algorithm             .... Taylor
   White noise on init. David. guess    .... on
   Maximum white noise                  ....   0.010
   Quad. conv. algorithm                .... NR
   COSX micro iterations for RIJONX calc.... off
 SOSCF                  CNVSOSCF        .... on
   Start iteration      SOSCFMaxIt      ....   150
   Startup grad/error   SOSCFStart      ....  0.003300
 Level Shifting         CNVShift        .... on
   Level shift para.    LevelShift      ....    0.2500
   Turn off err/grad.   ShiftErr        ....    0.0010
 Zerner damping         CNVZerner       .... off
 Static damping         CNVDamp         .... on
   Fraction old density DampFac         ....    0.7000
   Max. Damping (<1)    DampMax         ....    0.9800
   Min. Damping (>=0)   DampMin         ....    0.0000
   Turn off err/grad.   DampErr         ....    0.1000
 Fernandez-Rico         CNVRico         .... off

SCF Procedure:
 Maximum # iterations   MaxIter         ....   125
 SCF integral mode      SCFMode         .... Direct
   Integral package                     .... SHARK and LIBINT hybrid scheme
 Reset frequency        DirectResetFreq ....    20
 Integral Threshold     Thresh          ....  2.500e-11 Eh
 Primitive CutOff       TCut            ....  2.500e-12 Eh

Convergence Tolerance:
 Convergence Check Mode ConvCheckMode   .... Total+1el-Energy
 Convergence forced     ConvForced      .... 0
 Energy Change          TolE            ....  1.000e-08 Eh
 1-El. energy change                    ....  1.000e-05 Eh
 Orbital Gradient       TolG            ....  1.000e-05
 Orbital Rotation angle TolX            ....  1.000e-05
 DIIS Error             TolErr          ....  5.000e-07


Diagonalization of the overlap matrix:
Smallest eigenvalue                        ... 1.011e-02
Time for diagonalization                   ...    0.002 sec
Threshold for overlap eigenvalues          ... 1.000e-08
Number of eigenvalues below threshold      ... 0
Time for construction of square roots      ...    0.184 sec
Total time needed                          ...    0.204 sec

--------------------------------
INITIAL GUESS: MINIMAL BASIS EHT
--------------------------------
The minimal basis has 32 functions
EHT matrix was diagonalized
Basis set overlap was calculated now projecting the orbitals
Using GuessMode=FMatrix for the initial guess
C*T matrix was formed
Effective Fockian was calculated
Effective Fockian was diagonalized
Initial density was built
                      ------------------
                      INITIAL GUESS DONE
                      ------------------
-------------------
DFT GRID GENERATION
-------------------

General Integration Accuracy     IntAcc      ... 4.959
Radial Grid Type                 RadialGrid  ... OptM3 with GC (2021)
Angular Grid (max. ang.)         AngularGrid ... 6 (Lebedev-590)
Angular grid pruning method      GridPruning ... 4 (adaptive)
Weight generation scheme         WeightScheme... Becke
Basis function cutoff            BFCut       ... 1.0000e-11
Integration weight cutoff        WCut        ... 1.0000e-14
Angular grids for H and He will be reduced by one unit
Partially contracted basis set               ... off
Rotationally invariant grid construction     ... off

Total number of grid points                  ...   133382
Total number of batches                      ...     2088
Average number of points per batch           ...       63
Average number of grid points per atom       ...    11115
Time for grid setup =    2.575 sec

--------------------
COSX GRID GENERATION
--------------------

GRIDX 1
-------
General Integration Accuracy     IntAcc      ... 4.020
Radial Grid Type                 RadialGrid  ... OptM3 with GC (2021)
Angular Grid (max. ang.)         AngularGrid ... 2 (Lebedev-110)
Angular grid pruning method      GridPruning ... 4 (adaptive)
Weight generation scheme         WeightScheme... Becke
Basis function cutoff            BFCut       ... 1.0000e-11
Integration weight cutoff        WCut        ... 1.0000e-14
Angular grids for H and He will be reduced by one unit
Partially contracted basis set               ... on
Rotationally invariant grid construction     ... off

Total number of grid points                  ...    14531
Total number of batches                      ...      234
Average number of points per batch           ...       62
Average number of grid points per atom       ...     1211
UseSFitting                                  ... on

GRIDX 2
-------
General Integration Accuracy     IntAcc      ... 4.338
Radial Grid Type                 RadialGrid  ... OptM3 with GC (2021)
Angular Grid (max. ang.)         AngularGrid ... 3 (Lebedev-194)
Angular grid pruning method      GridPruning ... 4 (adaptive)
Weight generation scheme         WeightScheme... Becke
Basis function cutoff            BFCut       ... 1.0000e-11
Integration weight cutoff        WCut        ... 1.0000e-14
Angular grids for H and He will be reduced by one unit
Partially contracted basis set               ... on
Rotationally invariant grid construction     ... off

Total number of grid points                  ...    31922
Total number of batches                      ...      506
Average number of points per batch           ...       63
Average number of grid points per atom       ...     2660
UseSFitting                                  ... on

GRIDX 3
-------
General Integration Accuracy     IntAcc      ... 4.871
Radial Grid Type                 RadialGrid  ... OptM3 with GC (2021)
Angular Grid (max. ang.)         AngularGrid ... 4 (Lebedev-302)
Angular grid pruning method      GridPruning ... 4 (adaptive)
Weight generation scheme         WeightScheme... Becke
Basis function cutoff            BFCut       ... 1.0000e-11
Integration weight cutoff        WCut        ... 1.0000e-14
Angular grids for H and He will be reduced by one unit
Partially contracted basis set               ... on
Rotationally invariant grid construction     ... off

Total number of grid points                  ...    62352
Total number of batches                      ...      979
Average number of points per batch           ...       63
Average number of grid points per atom       ...     5196
UseSFitting                                  ... on

Time for X-Grid setup             =    3.372 sec

--------------
SCF ITERATIONS
--------------
ITER       Energy         Delta-E        Max-DP      RMS-DP      [F,P]     Damp
               ***  Starting incremental Fock matrix formation  ***
  0   -247.1635981564   0.000000000000 0.20236851  0.00800462  0.5667780 0.7000
  1   -247.4813971842  -0.317799027773 0.11237180  0.00435873  0.2794109 0.7000
                               ***Turning on DIIS***
  2   -247.6303815834  -0.148984399141 0.04545545  0.00234065  0.1997631 0.7000
  3   -247.7355822647  -0.105200681380 0.03323241  0.00167135  0.1421089 0.7000
  4   -247.8114956314  -0.075913366665 0.07618627  0.00398773  0.0993740 0.0000
  5   -247.9919365418  -0.180440910415 0.01274933  0.00036885  0.0101447 0.0000
  6   -247.9921490348  -0.000212492944 0.00306284  0.00012928  0.0046044 0.0000
                      *** Initiating the SOSCF procedure ***
                           *** Shutting down DIIS ***
                      *** Re-Reading the Fockian *** 
                      *** Removing any level shift *** 
ITER      Energy       Delta-E        Grad      Rot      Max-DP    RMS-DP
  7   -247.99221696  -0.0000679268  0.001043  0.001043  0.001761  0.000073
               *** Restarting incremental Fock matrix formation ***
  8   -247.99222891  -0.0000119458  0.000367  0.000668  0.001470  0.000055
  9   -247.99223123  -0.0000023230  0.000383  0.001242  0.001136  0.000037
 10   -247.99223189  -0.0000006547  0.000225  0.000470  0.000435  0.000015
 11   -247.99223218  -0.0000002919  0.000031  0.000065  0.000093  0.000005
 12   -247.99223219  -0.0000000127  0.000022  0.000059  0.000065  0.000002
 13   -247.99223220  -0.0000000115  0.000004  0.000007  0.000011  0.000000
 14   -247.99223220   0.0000000024  0.000003  0.000004  0.000005  0.000000
                  ***Gradient check signals convergence***
              ***Rediagonalizing the Fockian in SOSCF/NRSCF***

               *****************************************************
               *                     SUCCESS                       *
               *           SCF CONVERGED AFTER  15 CYCLES          *
               *****************************************************

Old exchange energy                            =    -13.800726489 Eh
New exchange energy                            =    -13.800723902 Eh
Exchange energy change after final integration =      0.000002586 Eh
Total energy after final integration           =   -247.992229613 Eh
Final COS-X integration done in                =     1.813 sec

----------------
TOTAL SCF ENERGY
----------------

Total Energy       :         -247.99222961 Eh           -6748.21164 eV

Components:
Nuclear Repulsion  :          181.48542486 Eh            4938.46948 eV
Electronic Energy  :         -429.47765448 Eh          -11686.68112 eV
One Electron Energy:         -695.57920843 Eh          -18927.67253 eV
Two Electron Energy:          266.10155396 Eh            7240.99141 eV
Max COSX asymmetry :            0.00000127 Eh               0.00003 eV

Virial components:
Potential Energy   :         -494.08320698 Eh          -13444.68758 eV
Kinetic Energy     :          246.09097737 Eh            6696.47594 eV
Virial Ratio       :            2.00772581


DFT components:
N(Alpha)           :       20.000000827948 electrons
N(Beta)            :       20.000000827948 electrons
N(Total)           :       40.000001655897 electrons
E(X)               :      -18.349968706558 Eh       
E(C)               :       -1.738322537540 Eh       
E(XC)              :      -20.088291244099 Eh       
DFET-embed. en.    :        0.000000000000 Eh       

---------------
SCF CONVERGENCE
---------------

  Last Energy change         ...   -6.3073e-10  Tolerance :   1.0000e-08
  Last MAX-Density change    ...    2.8866e-15  Tolerance :   1.0000e-07
  Last RMS-Density change    ...    5.4795e-17  Tolerance :   5.0000e-09
  Last Orbital Gradient      ...    1.8340e-07  Tolerance :   1.0000e-05
  Last Orbital Rotation      ...    3.5890e-07  Tolerance :   1.0000e-05

             **** THE GBW FILE WAS UPDATED (pbeh-3c.gbw) ****
             **** DENSITY pbeh-3c.scfp WAS UPDATED ****
             **** ENERGY FILE WAS UPDATED (pbeh-3c.en.tmp) ****
             **** THE GBW FILE WAS UPDATED (pbeh-3c.gbw) ****
             **** DENSITY pbeh-3c.scfp WAS UPDATED ****
----------------
ORBITAL ENERGIES
----------------

  NO   OCC          E(Eh)            E(eV) 
   0   2.0000     -19.457310      -529.4603 
   1   2.0000     -14.674968      -399.3262 
   2   2.0000     -10.539492      -286.7942 
   3   2.0000     -10.484011      -285.2844 
   4   2.0000     -10.469570      -284.8915 
   5   2.0000      -1.140609       -31.0375 
   6   2.0000      -1.041684       -28.3457 
   7   2.0000      -0.819989       -22.3130 
   8   2.0000      -0.786515       -21.4022 
   9   2.0000      -0.642251       -17.4765 
  10   2.0000      -0.583270       -15.8716 
  11   2.0000      -0.543934       -14.8012 
  12   2.0000      -0.531283       -14.4570 
  13   2.0000      -0.471123       -12.8199 
  14   2.0000      -0.468001       -12.7350 
  15   2.0000      -0.463621       -12.6158 
  16   2.0000      -0.443741       -12.0748 
  17   2.0000      -0.432043       -11.7565 
  18   2.0000      -0.310894        -8.4598 
  19   2.0000      -0.291096        -7.9211 
  20   0.0000       0.065137         1.7725 
  21   0.0000       0.131096         3.5673 
  22   0.0000       0.160771         4.3748 
  23   0.0000       0.181439         4.9372 
  24   0.0000       0.188610         5.1323 
  25   0.0000       0.195529         5.3206 
  26   0.0000       0.203588         5.5399 
  27   0.0000       0.218732         5.9520 
  28   0.0000       0.250437         6.8147 
  29   0.0000       0.267338         7.2746 
  30   0.0000       0.330190         8.9849 
  31   0.0000       0.396252        10.7826 
  32   0.0000       0.442477        12.0404 
  33   0.0000       0.496941        13.5224 
  34   0.0000       0.524521        14.2729 
  35   0.0000       0.533795        14.5253 
  36   0.0000       0.570574        15.5261 
  37   0.0000       0.621647        16.9159 
  38   0.0000       0.643310        17.5054 
  39   0.0000       0.652353        17.7514 
  40   0.0000       0.736667        20.0457 
  41   0.0000       0.784546        21.3486 
  42   0.0000       0.912602        24.8332 
  43   0.0000       0.917733        24.9728 
  44   0.0000       0.954040        25.9607 
  45   0.0000       0.967943        26.3391 
  46   0.0000       1.003458        27.3055 
  47   0.0000       1.005343        27.3568 
  48   0.0000       1.010743        27.5037 
  49   0.0000       1.036946        28.2167 
  50   0.0000       1.058728        28.8095 
  51   0.0000       1.062215        28.9043 
  52   0.0000       1.139510        31.0076 
  53   0.0000       1.147776        31.2326 
  54   0.0000       1.267948        34.5026 
  55   0.0000       1.309340        35.6289 
  56   0.0000       1.381297        37.5870 
  57   0.0000       1.407597        38.3027 
  58   0.0000       1.460495        39.7421 
  59   0.0000       1.556482        42.3540 
  60   0.0000       1.614544        43.9340 
  61   0.0000       1.793799        48.8118 
  62   0.0000       1.843338        50.1598 
  63   0.0000       1.879693        51.1491 
  64   0.0000       1.927628        52.4534 
  65   0.0000       1.986865        54.0653 
  66   0.0000       2.014328        54.8127 
  67   0.0000       2.033903        55.3453 
  68   0.0000       2.096789        57.0565 
  69   0.0000       2.132774        58.0357 
  70   0.0000       2.147070        58.4247 
  71   0.0000       2.189888        59.5899 
  72   0.0000       2.255596        61.3779 
  73   0.0000       2.304855        62.7183 
  74   0.0000       2.380076        64.7652 
  75   0.0000       2.392171        65.0943 
  76   0.0000       2.464653        67.0666 
  77   0.0000       2.529418        68.8290 
  78   0.0000       2.627650        71.5020 
  79   0.0000       2.662566        72.4521 
  80   0.0000       2.746115        74.7256 
  81   0.0000       2.931697        79.7755 
  82   0.0000       2.986284        81.2609 
  83   0.0000       3.200951        87.1023 
  84   0.0000      13.660668       371.7257 
  85   0.0000      13.811504       375.8301 
  86   0.0000      13.867179       377.3451 
  87   0.0000      19.274668       524.4904 
  88   0.0000      25.665434       698.3920 

                    ********************************
                    * MULLIKEN POPULATION ANALYSIS *
                    ********************************

-----------------------
MULLIKEN ATOMIC CHARGES
-----------------------
   0 O :   -0.412333
   1 C :    0.277717
   2 N :   -0.420033
   3 C :   -0.497101
   4 C :   -0.477466
   5 H :    0.147692
   6 H :    0.273044
   7 H :    0.217643
   8 H :    0.218008
   9 H :    0.226935
  10 H :    0.222998
  11 H :    0.222896
Sum of atomic charges:   -0.0000000

--------------------------------
MULLIKEN REDUCED ORBITAL CHARGES
--------------------------------
  0 O s       :     3.766882  s :     3.766882
      pz      :     1.471941  p :     4.615372
      px      :     1.692380
      py      :     1.451051
      dz2     :     0.009299  d :     0.030079
      dxz     :     0.007951
      dyz     :     0.008992
      dx2y2   :     0.001475
      dxy     :     0.002363
  1 C s       :     3.067097  s :     3.067097
      pz      :     0.800179  p :     2.538027
      px      :     0.948950
      py      :     0.788899
      dz2     :     0.039161  d :     0.117158
      dxz     :     0.033557
      dyz     :     0.028754
      dx2y2   :     0.012027
      dxy     :     0.003660
  2 N s       :     3.488490  s :     3.488490
      pz      :     1.122315  p :     3.890779
      px      :     1.125980
      py      :     1.642484
      dz2     :     0.010088  d :     0.040765
      dxz     :     0.013609
      dyz     :     0.006088
      dx2y2   :     0.005982
      dxy     :     0.004997
  3 C s       :     3.343786  s :     3.343786
      pz      :     1.191361  p :     3.103092
      px      :     0.793784
      py      :     1.117946
      dz2     :     0.008386  d :     0.050223
      dxz     :     0.007692
      dyz     :     0.008385
      dx2y2   :     0.013964
      dxy     :     0.011796
  4 C s       :     3.336842  s :     3.336842
      pz      :     0.898503  p :     3.089265
      px      :     1.048777
      py      :     1.141986
      dz2     :     0.008375  d :     0.051359
      dxz     :     0.010275
      dyz     :     0.018456
      dx2y2   :     0.011702
      dxy     :     0.002551
  5 H s       :     0.852308  s :     0.852308
  6 H s       :     0.726956  s :     0.726956
  7 H s       :     0.782357  s :     0.782357
  8 H s       :     0.781992  s :     0.781992
  9 H s       :     0.773065  s :     0.773065
 10 H s       :     0.777002  s :     0.777002
 11 H s       :     0.777104  s :     0.777104


                     *******************************
                     * LOEWDIN POPULATION ANALYSIS *
                     *******************************

----------------------
LOEWDIN ATOMIC CHARGES
----------------------
   0 O :   -0.270346
   1 C :    0.060400
   2 N :   -0.154225
   3 C :   -0.251170
   4 C :   -0.244430
   5 H :    0.082030
   6 H :    0.155485
   7 H :    0.122525
   8 H :    0.122476
   9 H :    0.132517
  10 H :    0.122427
  11 H :    0.122311

-------------------------------
LOEWDIN REDUCED ORBITAL CHARGES
-------------------------------
  0 O s       :     3.526140  s :     3.526140
      pz      :     1.529539  p :     4.688003
      px      :     1.720712
      py      :     1.437752
      dz2     :     0.019081  d :     0.056203
      dxz     :     0.018398
      dyz     :     0.012192
      dx2y2   :     0.003464
      dxy     :     0.003069
  1 C s       :     2.875982  s :     2.875982
      pz      :     0.976628  p :     2.802167
      px      :     1.026909
      py      :     0.798630
      dz2     :     0.096712  d :     0.261451
      dxz     :     0.077921
      dyz     :     0.060101
      dx2y2   :     0.020902
      dxy     :     0.005815
  2 N s       :     3.078595  s :     3.078595
      pz      :     1.188746  p :     3.972816
      px      :     1.195691
      py      :     1.588379
      dz2     :     0.027637  d :     0.102814
      dxz     :     0.038366
      dyz     :     0.012646
      dx2y2   :     0.013257
      dxy     :     0.010907
  3 C s       :     2.941521  s :     2.941521
      pz      :     1.164166  p :     3.212869
      px      :     0.916349
      py      :     1.132353
      dz2     :     0.014984  d :     0.096781
      dxz     :     0.015433
      dyz     :     0.013653
      dx2y2   :     0.028047
      dxy     :     0.024663
  4 C s       :     2.940452  s :     2.940452
      pz      :     0.983217  p :     3.204461
      px      :     1.079513
      py      :     1.141732
      dz2     :     0.017485  d :     0.099517
      dxz     :     0.021445
      dyz     :     0.036183
      dx2y2   :     0.020242
      dxy     :     0.004162
  5 H s       :     0.917970  s :     0.917970
  6 H s       :     0.844515  s :     0.844515
  7 H s       :     0.877475  s :     0.877475
  8 H s       :     0.877524  s :     0.877524
  9 H s       :     0.867483  s :     0.867483
 10 H s       :     0.877573  s :     0.877573
 11 H s       :     0.877689  s :     0.877689


                      *****************************
                      * MAYER POPULATION ANALYSIS *
                      *****************************

  NA   - Mulliken gross atomic population
  ZA   - Total nuclear charge
  QA   - Mulliken gross atomic charge
  VA   - Mayer's total valence
  BVA  - Mayer's bonded valence
  FA   - Mayer's free valence

  ATOM       NA         ZA         QA         VA         BVA        FA
  0 O      8.4123     8.0000    -0.4123     2.1927     2.1927    -0.0000
  1 C      5.7223     6.0000     0.2777     4.0342     4.0342    -0.0000
  2 N      7.4200     7.0000    -0.4200     3.1341     3.1341    -0.0000
  3 C      6.4971     6.0000    -0.4971     3.6658     3.6658    -0.0000
  4 C      6.4775     6.0000    -0.4775     3.6972     3.6972    -0.0000
  5 H      0.8523     1.0000     0.1477     0.9238     0.9238    -0.0000
  6 H      0.7270     1.0000     0.2730     0.9139     0.9139    -0.0000
  7 H      0.7824     1.0000     0.2176     0.9095     0.9095    -0.0000
  8 H      0.7820     1.0000     0.2180     0.9091     0.9091    -0.0000
  9 H      0.7731     1.0000     0.2269     0.9201     0.9201     0.0000
 10 H      0.7770     1.0000     0.2230     0.9041     0.9041    -0.0000
 11 H      0.7771     1.0000     0.2229     0.9039     0.9039    -0.0000

  Mayer bond orders larger than 0.100000
B(  0-O ,  1-C ) :   1.9901 B(  0-O ,  2-N ) :   0.1080 B(  1-C ,  2-N ) :   1.1567 
B(  1-C ,  5-H ) :   0.8768 B(  2-N ,  3-C ) :   0.9423 B(  2-N ,  4-C ) :   0.9675 
B(  3-C ,  6-H ) :   0.8975 B(  3-C ,  7-H ) :   0.9173 B(  3-C ,  8-H ) :   0.9170 
B(  4-C ,  9-H ) :   0.9208 B(  4-C , 10-H ) :   0.9095 B(  4-C , 11-H ) :   0.9093 


-------
TIMINGS
-------

Total SCF time: 0 days 0 hours 1 min 2 sec 

Total time                  ....      62.935 sec
Sum of individual times     ....      57.406 sec  ( 91.2%)

Fock matrix formation       ....      45.758 sec  ( 72.7%)
  Split-RI-J                ....       4.612 sec  ( 10.1% of F)
  Chain of spheres X        ....      14.906 sec  ( 32.6% of F)
  XC integration            ....      13.772 sec  ( 30.1% of F)
    Basis function eval.    ....       2.377 sec  ( 17.3% of XC)
    Density eval.           ....       1.226 sec  (  8.9% of XC)
    XC-Functional eval.     ....       1.364 sec  (  9.9% of XC)
    XC-Potential eval.      ....       0.739 sec  (  5.4% of XC)
Diagonalization             ....       0.910 sec  (  1.4%)
Density matrix formation    ....       0.034 sec  (  0.1%)
Population analysis         ....       1.100 sec  (  1.7%)
Initial guess               ....       0.026 sec  (  0.0%)
Orbital Transformation      ....       0.000 sec  (  0.0%)
Orbital Orthonormalization  ....       0.000 sec  (  0.0%)
DIIS solution               ....       3.220 sec  (  5.1%)
SOSCF solution              ....       0.410 sec  (  0.7%)
Grid generation             ....       5.947 sec  (  9.4%)

Maximum memory used throughout the entire SCF-calculation: 49.8 MB


-------------------------------------------------------------------------------
                          DFT DISPERSION CORRECTION                            
                                                                               
                              DFTD3 V3.1  Rev 1                                
                          USING Becke-Johnson damping                          
-------------------------------------------------------------------------------
The PBEh-3c composite method is recognized
Using three-body term ABC
Active option DFTDOPT                   ...         4   

molecular C6(AA) [au] = 1109.849310 


            DFT-D V3
 parameters
 s6 scaling factor         :     1.0000 
 a1 scaling factor         :     0.4860 
 s8 scaling factor         :     0.0000 
 a2 scaling factor         :     4.5000 
 Damping factor alpha9(ATM):    16.0000 
 ad hoc parameters k1-k3   :    16.0000     1.3333    -4.0000 

 Edisp/kcal,au: -2.912024266312  -0.004640605562 
 E6   /kcal   :  -2.923300355 
 E8   /kcal   :  -0.000000000 
 E6(ABC)      :   0.011276089 
 % E8         :   0.000000000 
 % E6(ABC)    :  -0.387225098 

-------------------------   ----------------
Dispersion correction           -0.004640606
-------------------------   ----------------

------------------   -----------------
gCP correction             0.024280183
------------------   -----------------

-------------------------   --------------------
FINAL SINGLE POINT ENERGY      -247.972590035892
-------------------------   --------------------


                            ***************************************
                            *     ORCA property calculations      *
                            ***************************************

                                    ---------------------
                                    Active property flags
                                    ---------------------
   (+) Dipole Moment


------------------------------------------------------------------------------
                       ORCA ELECTRIC PROPERTIES CALCULATION
------------------------------------------------------------------------------

Dipole Moment Calculation                       ... on
Quadrupole Moment Calculation                   ... off
Polarizability Calculation                      ... off
GBWName                                         ... pbeh-3c.gbw
Electron density                                ... pbeh-3c.scfp
The origin for moment calculation is the CENTER OF MASS  = ( 0.108109, -0.001138  1.083879)

-------------
DIPOLE MOMENT
-------------
                                X             Y             Z
Electronic contribution:      0.87700      -0.00731       4.90146
Nuclear contribution   :     -0.68078       0.00733      -6.46237
                        -----------------------------------------
Total Dipole Moment    :      0.19621       0.00002      -1.56091
                        -----------------------------------------
Magnitude (a.u.)       :      1.57320
Magnitude (Debye)      :      3.99875



--------------------
Rotational spectrum 
--------------------
 
Rotational constants in cm-1:     0.297011     0.139515     0.098449 
Rotational constants in MHz :  8904.156331  4182.553844  2951.432310 

 Dipole components along the rotational axes: 
x,y,z [a.u.] :    -1.560914    -0.196212    -0.000018 
x,y,z [Debye]:    -3.967529    -0.498731    -0.000046 

 

Timings for individual modules:

Sum of individual times         ...       66.222 sec (=   1.104 min)
GTO integral calculation        ...        2.657 sec (=   0.044 min)   4.0 %
SCF iterations                  ...       63.565 sec (=   1.059 min)  96.0 %
                             ****ORCA TERMINATED NORMALLY****
TOTAL RUN TIME: 0 days 0 hours 1 minutes 12 seconds 344 msec
