
                                 *****************
                                 * O   R   C   A *
                                 *****************

                                            #,                                       
                                            ###                                      
                                            ####                                     
                                            #####                                    
                                            ######                                   
                                           ########,                                 
                                     ,,################,,,,,                         
                               ,,#################################,,                 
                          ,,##########################################,,             
                       ,#########################################, ''#####,          
                    ,#############################################,,   '####,        
                  ,##################################################,,,,####,       
                ,###########''''           ''''###############################       
              ,#####''   ,,,,##########,,,,          '''####'''          '####       
            ,##' ,,,,###########################,,,                        '##       
           ' ,,###''''                  '''############,,,                           
         ,,##''                                '''############,,,,        ,,,,,,###''
      ,#''                                            '''#######################'''  
     '                                                          ''''####''''         
             ,#######,   #######,   ,#######,      ##                                
            ,#'     '#,  ##    ##  ,#'     '#,    #''#        ######   ,####,        
            ##       ##  ##   ,#'  ##            #'  '#       #        #'  '#        
            ##       ##  #######   ##           ,######,      #####,   #    #        
            '#,     ,#'  ##    ##  '#,     ,#' ,#      #,         ##   #,  ,#        
             '#######'   ##     ##  '#######'  #'      '#     #####' # '####'        



                  #######################################################
                  #                        -***-                        #
                  #          Department of theory and spectroscopy      #
                  #    Directorship and core code : Frank Neese         #
                  #        Max Planck Institute fuer Kohlenforschung    #
                  #                Kaiser Wilhelm Platz 1               #
                  #                 D-45470 Muelheim/Ruhr               #
                  #                      Germany                        #
                  #                                                     #
                  #                  All rights reserved                #
                  #                        -***-                        #
                  #######################################################


                         Program Version 5.0.3 -  RELEASE  -


 With contributions from (in alphabetic order):
   Daniel Aravena         : Magnetic Suceptibility
   Michael Atanasov       : Ab Initio Ligand Field Theory (pilot matlab implementation)
   Alexander A. Auer      : GIAO ZORA, VPT2 properties, NMR spectrum
   Ute Becker             : Parallelization
   Giovanni Bistoni       : ED, misc. LED, open-shell LED, HFLD
   Martin Brehm           : Molecular dynamics
   Dmytro Bykov           : SCF Hessian
   Vijay G. Chilkuri      : MRCI spin determinant printing, contributions to CSF-ICE
   Dipayan Datta          : RHF DLPNO-CCSD density
   Achintya Kumar Dutta   : EOM-CC, STEOM-CC
   Dmitry Ganyushin       : Spin-Orbit,Spin-Spin,Magnetic field MRCI
   Miquel Garcia          : C-PCM and meta-GGA Hessian, CC/C-PCM, Gaussian charge scheme
   Yang Guo               : DLPNO-NEVPT2, F12-NEVPT2, CIM, IAO-localization
   Andreas Hansen         : Spin unrestricted coupled pair/coupled cluster methods
   Benjamin Helmich-Paris : MC-RPA, TRAH-SCF, COSX integrals
   Lee Huntington         : MR-EOM, pCC
   Robert Izsak           : Overlap fitted RIJCOSX, COSX-SCS-MP3, EOM
   Marcus Kettner         : VPT2
   Christian Kollmar      : KDIIS, OOCD, Brueckner-CCSD(T), CCSD density, CASPT2, CASPT2-K
   Simone Kossmann        : Meta GGA functionals, TD-DFT gradient, OOMP2, MP2 Hessian
   Martin Krupicka        : Initial AUTO-CI
   Lucas Lang             : DCDCAS
   Marvin Lechner         : AUTO-CI (C++ implementation), FIC-MRCC
   Dagmar Lenk            : GEPOL surface, SMD
   Dimitrios Liakos       : Extrapolation schemes; Compound Job, initial MDCI parallelization
   Dimitrios Manganas     : Further ROCIS development; embedding schemes
   Dimitrios Pantazis     : SARC Basis sets
   Anastasios Papadopoulos: AUTO-CI, single reference methods and gradients
   Taras Petrenko         : DFT Hessian,TD-DFT gradient, ASA, ECA, R-Raman, ABS, FL, XAS/XES, NRVS
   Peter Pinski           : DLPNO-MP2, DLPNO-MP2 Gradient
   Christoph Reimann      : Effective Core Potentials
   Marius Retegan         : Local ZFS, SOC
   Christoph Riplinger    : Optimizer, TS searches, QM/MM, DLPNO-CCSD(T), (RO)-DLPNO pert. Triples
   Tobias Risthaus        : Range-separated hybrids, TD-DFT gradient, RPA, STAB
   Michael Roemelt        : Original ROCIS implementation
   Masaaki Saitow         : Open-shell DLPNO-CCSD energy and density
   Barbara Sandhoefer     : DKH picture change effects
   Avijit Sen             : IP-ROCIS
   Kantharuban Sivalingam : CASSCF convergence, NEVPT2, FIC-MRCI
   Bernardo de Souza      : ESD, SOC TD-DFT
   Georgi Stoychev        : AutoAux, RI-MP2 NMR, DLPNO-MP2 response
   Willem Van den Heuvel  : Paramagnetic NMR
   Boris Wezisla          : Elementary symmetry handling
   Frank Wennmohs         : Technical directorship


 We gratefully acknowledge several colleagues who have allowed us to
 interface, adapt or use parts of their codes:
   Stefan Grimme, W. Hujo, H. Kruse, P. Pracht,  : VdW corrections, initial TS optimization,
                  C. Bannwarth, S. Ehlert          DFT functionals, gCP, sTDA/sTD-DF
   Ed Valeev, F. Pavosevic, A. Kumar             : LibInt (2-el integral package), F12 methods
   Garnet Chan, S. Sharma, J. Yang, R. Olivares  : DMRG
   Ulf Ekstrom                                   : XCFun DFT Library
   Mihaly Kallay                                 : mrcc  (arbitrary order and MRCC methods)
   Jiri Pittner, Ondrej Demel                    : Mk-CCSD
   Frank Weinhold                                : gennbo (NPA and NBO analysis)
   Christopher J. Cramer and Donald G. Truhlar   : smd solvation model
   Lars Goerigk                                  : TD-DFT with DH, B97 family of functionals
   V. Asgeirsson, H. Jonsson                     : NEB implementation
   FAccTs GmbH                                   : IRC, NEB, NEB-TS, DLPNO-Multilevel, CI-OPT
                                                   MM, QMMM, 2- and 3-layer-ONIOM, Crystal-QMMM,
                                                   LR-CPCM, SF, NACMEs, symmetry and pop. for TD-DFT,
                                                   nearIR, NL-DFT gradient (VV10), updates on ESD,
                                                   ML-optimized integration grids
   S Lehtola, MJT Oliveira, MAL Marques          : LibXC Library
   Liviu Ungur et al                             : ANISO software


 Your calculation uses the libint2 library for the computation of 2-el integrals
 For citations please refer to: http://libint.valeyev.net

 Your ORCA version has been built with support for libXC version: 5.1.0
 For citations please refer to: https://tddft.org/programs/libxc/

 This ORCA versions uses:
   CBLAS   interface :  Fast vector & matrix operations
   LAPACKE interface :  Fast linear algebra routines
   SCALAPACK package :  Parallel linear algebra routines
   Shared memory     :  Shared parallel matrices
   BLAS/LAPACK       :  OpenBLAS 0.3.15  USE64BITINT DYNAMIC_ARCH NO_AFFINITY Haswell SINGLE_THREADED
        Core in use  :  Haswell
   Copyright (c) 2011-2014, The OpenBLAS Project




***************************************
The coordinates will be read from file: 19.xyz
***************************************


Your calculation utilizes the geometrical counterpoise correction gCP
Please cite in your paper:
H.Kruse, S. Grimme J.Chem.Phys., 136, (2012), 154101 
   

Your calculation utilizes the atom-pairwise dispersion correction
with the Becke-Johnson damping scheme (D3BJ)
Cite in your paper:
S.Grimme, S.Ehrlich, L.Goerigk, J Comput Chem, (2011), 32, 1456–1465 
S.Grimme, J.Antony, S.Ehrlich and H.Krieg, J.Chem.Phys., 132, (2010), 154104 
   

Your calculation employs the composite approach PBEh-3c.
Please cite in your paper:
S. Grimme, J. G. Brandenburg, C. Bannwarth, A. Hansen J.Chem.Phys., 143, (2015), 054107 
   

================================================================================

----- Orbital basis set information -----
Your calculation utilizes the basis: def2-mSVP

----- AuxJ basis set information -----
Your calculation utilizes the auxiliary basis: def2/J
   F. Weigend, Phys. Chem. Chem. Phys. 8, 1057 (2006).

================================================================================
                                        WARNINGS
                       Please study these warnings very carefully!
================================================================================


INFO   : the flag for use of the SHARK integral package has been found!

================================================================================
                                       INPUT FILE
================================================================================
NAME = pbeh-3c.inp
|  1> ! PBEh-3c def2/J TightSCF DefGrid3
|  2> 
|  3> %maxcore 60000
|  4> 
|  5> %pal
|  6> nprocs 4
|  7> end
|  8> 
|  9> *xyzfile 0 1 19.xyz
| 10> 
| 11>                          ****END OF INPUT****
================================================================================

                       ****************************
                       * Single Point Calculation *
                       ****************************

---------------------------------
CARTESIAN COORDINATES (ANGSTROEM)
---------------------------------
  O     -2.867930    0.467977    0.001356
  H     -1.896676    0.502812   -0.000716
  C     -3.218209   -0.898047    0.001123
  H     -4.303670   -0.961534    0.004894
  H     -2.855162   -1.425866   -0.885499
  H     -2.848918   -1.427727    0.884057
  N      0.032058    0.396942   -0.001742
  C      0.728427    0.372506   -1.146462
  H      0.143948    0.395730   -2.057437
  C      2.118064    0.322763   -1.195147
  H      2.625416    0.305471   -2.148929
  C      2.828437    0.297051    0.000466
  H      3.908773    0.259286    0.001315
  C      2.116189    0.322072    1.195006
  H      2.621988    0.304248    2.149491
  C      0.726636    0.371822    1.144052
  H      0.140630    0.394496    2.054170

----------------------------
CARTESIAN COORDINATES (A.U.)
----------------------------
  NO LB      ZA    FRAG     MASS         X           Y           Z
   0 O     8.0000    0    15.999   -5.419602    0.884347    0.002563
   1 H     1.0000    0     1.008   -3.584199    0.950178   -0.001352
   2 C     6.0000    0    12.011   -6.081534   -1.697062    0.002123
   3 H     1.0000    0     1.008   -8.132758   -1.817036    0.009248
   4 H     1.0000    0     1.008   -5.395474   -2.694497   -1.673351
   5 H     1.0000    0     1.008   -5.383676   -2.698014    1.670627
   6 N     7.0000    0    14.007    0.060581    0.750111   -0.003292
   7 C     6.0000    0    12.011    1.376527    0.703935   -2.166498
   8 H     1.0000    0     1.008    0.272022    0.747821   -3.887992
   9 C     6.0000    0    12.011    4.002560    0.609934   -2.258500
  10 H     1.0000    0     1.008    4.961317    0.577257   -4.060888
  11 C     6.0000    0    12.011    5.344971    0.561344    0.000881
  12 H     1.0000    0     1.008    7.386510    0.489980    0.002486
  13 C     6.0000    0    12.011    3.999018    0.608627    2.258234
  14 H     1.0000    0     1.008    4.954839    0.574944    4.061950
  15 C     6.0000    0    12.011    1.373143    0.702641    2.161945
  16 H     1.0000    0     1.008    0.265752    0.745489    3.881819

--------------------------------
INTERNAL COORDINATES (ANGSTROEM)
--------------------------------
 O      0   0   0     0.000000000000     0.00000000     0.00000000
 H      1   0   0     0.971880439671     0.00000000     0.00000000
 C      1   2   0     1.410218102013   106.43615533     0.00000000
 H      3   1   2     1.087322400681   107.72926827   179.91851313
 H      3   1   2     1.093844747387   112.65046368   298.70068960
 H      3   1   2     1.093851222437   112.64803230    61.13875800
 N      2   1   3     1.931638292649   174.80315203   358.94725636
 C      7   2   1     1.340115206273   121.35273526    91.70311062
 H      8   7   2     1.082603603366   115.96645682   358.83382668
 C      8   7   2     1.391378927051   123.33431668   178.72246451
 H     10   8   7     1.080466014458   120.02913392   180.02804915
 C     10   8   7     1.390964207923   118.72790423     0.00000000
 H     12  10   8     1.080996091901   120.77811974   180.05644866
 C     12  10   8     1.390988047409   118.44571684     0.00000000
 H     14  12  10     1.080366970617   121.24422231   180.03200462
 C      7   2   1     1.340116680778   121.20423809   270.36459742
 H     16   7   2     1.082696999218   115.96318321     1.16465232

---------------------------
INTERNAL COORDINATES (A.U.)
---------------------------
 O      0   0   0     0.000000000000     0.00000000     0.00000000
 H      1   0   0     1.836587865893     0.00000000     0.00000000
 C      1   2   0     2.664926001903   106.43615533     0.00000000
 H      3   1   2     2.054741556565   107.72926827   179.91851313
 H      3   1   2     2.067067005589   112.65046368   298.70068960
 H      3   1   2     2.067079241662   112.64803230    61.13875800
 N      2   1   3     3.650267362902   174.80315203   358.94725636
 C      7   2   1     2.532450727760   121.35273526    91.70311062
 H      8   7   2     2.045824321957   115.96645682   358.83382668
 C      8   7   2     2.629325120635   123.33431668   178.72246451
 H     10   8   7     2.041784864335   120.02913392   180.02804915
 C     10   8   7     2.628541415062   118.72790423     0.00000000
 H     12  10   8     2.042786565532   120.77811974   180.05644866
 C     12  10   8     2.628586465162   118.44571684     0.00000000
 H     14  12  10     2.041597698600   121.24422231   180.03200462
 C      7   2   1     2.532453514170   121.20423809   270.36459742
 H     16   7   2     2.046000814540   115.96318321     1.16465232

---------------------
BASIS SET INFORMATION
---------------------
There are 4 groups of distinct atoms

 Group   1 Type O   : 8s4p1d contracted to 4s2p1d pattern {5111/31/1}
 Group   2 Type H   : 4s contracted to 2s pattern {31}
 Group   3 Type C   : 8s4p1d contracted to 4s2p1d pattern {5111/31/1}
 Group   4 Type N   : 8s4p1d contracted to 4s2p1d pattern {5111/31/1}

Atom   0O    basis set group =>   1
Atom   1H    basis set group =>   2
Atom   2C    basis set group =>   3
Atom   3H    basis set group =>   2
Atom   4H    basis set group =>   2
Atom   5H    basis set group =>   2
Atom   6N    basis set group =>   4
Atom   7C    basis set group =>   3
Atom   8H    basis set group =>   2
Atom   9C    basis set group =>   3
Atom  10H    basis set group =>   2
Atom  11C    basis set group =>   3
Atom  12H    basis set group =>   2
Atom  13C    basis set group =>   3
Atom  14H    basis set group =>   2
Atom  15C    basis set group =>   3
Atom  16H    basis set group =>   2
---------------------------------
AUXILIARY/J BASIS SET INFORMATION
---------------------------------
There are 4 groups of distinct atoms

 Group   1 Type O   : 12s5p4d2f1g contracted to 6s4p3d1f1g pattern {711111/2111/211/2/1}
 Group   2 Type H   : 5s2p1d contracted to 3s1p1d pattern {311/2/1}
 Group   3 Type C   : 12s5p4d2f1g contracted to 6s4p3d1f1g pattern {711111/2111/211/2/1}
 Group   4 Type N   : 12s5p4d2f1g contracted to 6s4p3d1f1g pattern {711111/2111/211/2/1}

Atom   0O    basis set group =>   1
Atom   1H    basis set group =>   2
Atom   2C    basis set group =>   3
Atom   3H    basis set group =>   2
Atom   4H    basis set group =>   2
Atom   5H    basis set group =>   2
Atom   6N    basis set group =>   4
Atom   7C    basis set group =>   3
Atom   8H    basis set group =>   2
Atom   9C    basis set group =>   3
Atom  10H    basis set group =>   2
Atom  11C    basis set group =>   3
Atom  12H    basis set group =>   2
Atom  13C    basis set group =>   3
Atom  14H    basis set group =>   2
Atom  15C    basis set group =>   3
Atom  16H    basis set group =>   2


           ************************************************************
           *        Program running with 4 parallel MPI-processes     *
           *              working on a common directory               *
           ************************************************************
------------------------------------------------------------------------------
                           ORCA GTO INTEGRAL CALCULATION
                           -- RI-GTO INTEGRALS CHOSEN --
------------------------------------------------------------------------------
------------------------------------------------------------------------------
                   ___                                                        
                  /   \      - P O W E R E D   B Y -                         
                 /     \                                                     
                 |  |  |   _    _      __       _____    __    __             
                 |  |  |  | |  | |    /  \     |  _  \  |  |  /  |          
                  \  \/   | |  | |   /    \    | | | |  |  | /  /          
                 / \  \   | |__| |  /  /\  \   | |_| |  |  |/  /          
                |  |  |   |  __  | /  /__\  \  |    /   |      \           
                |  |  |   | |  | | |   __   |  |    \   |  |\   \          
                \     /   | |  | | |  |  |  |  | |\  \  |  | \   \       
                 \___/    |_|  |_| |__|  |__|  |_| \__\ |__|  \__/        
                                                                              
                      - O R C A' S   B I G   F R I E N D -                    
                                      &                                       
                       - I N T E G R A L  F E E D E R -                       
                                                                              
 v1 FN, 2020, v2 2021                                                         
------------------------------------------------------------------------------


Reading SHARK input file pbeh-3c.SHARKINP.tmp ... ok
----------------------
SHARK INTEGRAL PACKAGE
----------------------

Number of atoms                             ...     17
Number of basis functions                   ...    138
Number of shells                            ...     74
Maximum angular momentum                    ...      2
Integral batch strategy                     ... SHARK/LIBINT Hybrid
RI-J (if used) integral strategy            ... SPLIT-RIJ (Revised 2003 algorithm where possible)
Printlevel                                  ...      1
Contraction scheme used                     ... SEGMENTED contraction
Coulomb Range Separation                    ... NOT USED
Exchange Range Separation                   ... NOT USED
Finite Nucleus Model                        ... NOT USED
Auxiliary Coulomb fitting basis             ... AVAILABLE
   # of basis functions in Aux-J            ...    491
   # of shells in Aux-J                     ...    165
   Maximum angular momentum in Aux-J        ...      4
Auxiliary J/K fitting basis                 ... NOT available
Auxiliary Correlation fitting basis         ... NOT available
Auxiliary 'external' fitting basis          ... NOT available
Integral threshold                          ...     2.500000e-11
Primitive cut-off                           ...     2.500000e-12
Primitive pair pre-selection threshold      ...     2.500000e-12

Calculating pre-screening integrals         ... done (  0.1 sec) Dimension = 74
Organizing shell pair data                  ... done (  0.5 sec)
Shell pair information
Total number of shell pairs                 ...      2775
Shell pairs after pre-screening             ...      2339
Total number of primitive shell pairs       ...     10001
Primitive shell pairs kept                  ...      5932
          la=0 lb=0:   1004 shell pairs
          la=1 lb=0:    729 shell pairs
          la=1 lb=1:    130 shell pairs
          la=2 lb=0:    328 shell pairs
          la=2 lb=1:    118 shell pairs
          la=2 lb=2:     30 shell pairs

Calculating one electron integrals          ... done (  0.0 sec)
Calculating RI/J V-Matrix + Cholesky decomp.... done (  0.4 sec)
Calculating Nuclear repulsion               ... done (  0.0 sec) ENN=    337.494884698096 Eh

SHARK setup successfully completed in   2.1 seconds

Maximum memory used throughout the entire GTOINT-calculation: 11.0 MB


           ************************************************************
           *        Program running with 4 parallel MPI-processes     *
           *              working on a common directory               *
           ************************************************************
-------------------------------------------------------------------------------
                                 ORCA SCF
-------------------------------------------------------------------------------

------------
SCF SETTINGS
------------
Hamiltonian:
 Density Functional     Method          .... DFT(GTOs)
 Exchange Functional    Exchange        .... PBE
   PBE kappa parameter   XKappa         ....  1.024500
   PBE mue parameter    XMuePBE         ....  0.123457
 Correlation Functional Correlation     .... PBE
   PBE beta parameter  CBetaPBE         ....  0.030000
 LDA part of GGA corr.  LDAOpt          .... PW91-LDA
 Gradients option       PostSCFGGA      .... off
 Hybrid DFT is turned on
   Fraction HF Exchange ScalHFX         ....  0.420000
   Scaling of DF-GGA-X  ScalDFX         ....  0.580000
   Scaling of DF-GGA-C  ScalDFC         ....  1.000000
   Scaling of DF-LDA-C  ScalLDAC        ....  1.000000
   Perturbative correction              ....  0.000000
   Density functional embedding theory  .... OFF
 RI-approximation to the Coulomb term is turned on
   Number of AuxJ basis functions       .... 491
   RIJ-ON(X) (HFX calculated with O(N)) .... on
   Number of AuxJ basis functions       .... 491
   RIJ-COSX (HFX calculated with COS-X)).... on


General Settings:
 Integral files         IntName         .... pbeh-3c
 Hartree-Fock type      HFTyp           .... RHF
 Total Charge           Charge          ....    0
 Multiplicity           Mult            ....    1
 Number of Electrons    NEL             ....   60
 Basis Dimension        Dim             ....  138
 Nuclear Repulsion      ENuc            ....    337.4948846981 Eh

Convergence Acceleration:
 DIIS                   CNVDIIS         .... on
   Start iteration      DIISMaxIt       ....    12
   Startup error        DIISStart       ....  0.200000
   # of expansion vecs  DIISMaxEq       ....     5
   Bias factor          DIISBfac        ....   1.050
   Max. coefficient     DIISMaxC        ....  10.000
 Trust-Rad. Augm. Hess. CNVTRAH         .... auto
   Auto Start mean grad. ratio tolernc. ....  1.125000
   Auto Start start iteration           ....    20
   Auto Start num. interpolation iter.  ....    10
   Max. Number of Micro iterations      ....    16
   Max. Number of Macro iterations      .... Maxiter - #DIIS iter
   Number of Davidson start vectors     ....     2
   Converg. threshold I  (grad. norm)   ....   1.000e-05
   Converg. threshold II (energy diff.) ....   1.000e-08
   Grad. Scal. Fac. for Micro threshold ....   0.100
   Minimum threshold for Micro iter.    ....   0.010
   NR start threshold (gradient norm)   ....   0.001
   Initial trust radius                 ....   0.400
   Minimum AH scaling param. (alpha)    ....   1.000
   Maximum AH scaling param. (alpha)    .... 1000.000
   Orbital update algorithm             .... Taylor
   White noise on init. David. guess    .... on
   Maximum white noise                  ....   0.010
   Quad. conv. algorithm                .... NR
   COSX micro iterations for RIJONX calc.... off
 SOSCF                  CNVSOSCF        .... on
   Start iteration      SOSCFMaxIt      ....   150
   Startup grad/error   SOSCFStart      ....  0.003300
 Level Shifting         CNVShift        .... on
   Level shift para.    LevelShift      ....    0.2500
   Turn off err/grad.   ShiftErr        ....    0.0010
 Zerner damping         CNVZerner       .... off
 Static damping         CNVDamp         .... on
   Fraction old density DampFac         ....    0.7000
   Max. Damping (<1)    DampMax         ....    0.9800
   Min. Damping (>=0)   DampMin         ....    0.0000
   Turn off err/grad.   DampErr         ....    0.1000
 Fernandez-Rico         CNVRico         .... off

SCF Procedure:
 Maximum # iterations   MaxIter         ....   125
 SCF integral mode      SCFMode         .... Direct
   Integral package                     .... SHARK and LIBINT hybrid scheme
 Reset frequency        DirectResetFreq ....    20
 Integral Threshold     Thresh          ....  2.500e-11 Eh
 Primitive CutOff       TCut            ....  2.500e-12 Eh

Convergence Tolerance:
 Convergence Check Mode ConvCheckMode   .... Total+1el-Energy
 Convergence forced     ConvForced      .... 0
 Energy Change          TolE            ....  1.000e-08 Eh
 1-El. energy change                    ....  1.000e-05 Eh
 Orbital Gradient       TolG            ....  1.000e-05
 Orbital Rotation angle TolX            ....  1.000e-05
 DIIS Error             TolErr          ....  5.000e-07


Diagonalization of the overlap matrix:
Smallest eigenvalue                        ... 1.026e-03
Time for diagonalization                   ...    0.004 sec
Threshold for overlap eigenvalues          ... 1.000e-08
Number of eigenvalues below threshold      ... 0
Time for construction of square roots      ...    0.038 sec
Total time needed                          ...    0.042 sec

--------------------------------
INITIAL GUESS: MINIMAL BASIS EHT
--------------------------------
The minimal basis has 49 functions
EHT matrix was diagonalized
Basis set overlap was calculated now projecting the orbitals
Using GuessMode=FMatrix for the initial guess
C*T matrix was formed
Effective Fockian was calculated
Effective Fockian was diagonalized
Initial density was built
                      ------------------
                      INITIAL GUESS DONE
                      ------------------
-------------------
DFT GRID GENERATION
-------------------

General Integration Accuracy     IntAcc      ... 4.959
Radial Grid Type                 RadialGrid  ... OptM3 with GC (2021)
Angular Grid (max. ang.)         AngularGrid ... 6 (Lebedev-590)
Angular grid pruning method      GridPruning ... 4 (adaptive)
Weight generation scheme         WeightScheme... Becke
Basis function cutoff            BFCut       ... 1.0000e-11
Integration weight cutoff        WCut        ... 1.0000e-14
Angular grids for H and He will be reduced by one unit
Partially contracted basis set               ... off
Rotationally invariant grid construction     ... off

Total number of grid points                  ...   193642
Total number of batches                      ...     3035
Average number of points per batch           ...       63
Average number of grid points per atom       ...    11391
Time for grid setup =    4.407 sec

--------------------
COSX GRID GENERATION
--------------------

GRIDX 1
-------
General Integration Accuracy     IntAcc      ... 4.020
Radial Grid Type                 RadialGrid  ... OptM3 with GC (2021)
Angular Grid (max. ang.)         AngularGrid ... 2 (Lebedev-110)
Angular grid pruning method      GridPruning ... 4 (adaptive)
Weight generation scheme         WeightScheme... Becke
Basis function cutoff            BFCut       ... 1.0000e-11
Integration weight cutoff        WCut        ... 1.0000e-14
Angular grids for H and He will be reduced by one unit
Partially contracted basis set               ... on
Rotationally invariant grid construction     ... off

Total number of grid points                  ...    21326
Total number of batches                      ...      337
Average number of points per batch           ...       63
Average number of grid points per atom       ...     1254
UseSFitting                                  ... on

GRIDX 2
-------
General Integration Accuracy     IntAcc      ... 4.338
Radial Grid Type                 RadialGrid  ... OptM3 with GC (2021)
Angular Grid (max. ang.)         AngularGrid ... 3 (Lebedev-194)
Angular grid pruning method      GridPruning ... 4 (adaptive)
Weight generation scheme         WeightScheme... Becke
Basis function cutoff            BFCut       ... 1.0000e-11
Integration weight cutoff        WCut        ... 1.0000e-14
Angular grids for H and He will be reduced by one unit
Partially contracted basis set               ... on
Rotationally invariant grid construction     ... off

Total number of grid points                  ...    46867
Total number of batches                      ...      743
Average number of points per batch           ...       63
Average number of grid points per atom       ...     2757
UseSFitting                                  ... on

GRIDX 3
-------
General Integration Accuracy     IntAcc      ... 4.871
Radial Grid Type                 RadialGrid  ... OptM3 with GC (2021)
Angular Grid (max. ang.)         AngularGrid ... 4 (Lebedev-302)
Angular grid pruning method      GridPruning ... 4 (adaptive)
Weight generation scheme         WeightScheme... Becke
Basis function cutoff            BFCut       ... 1.0000e-11
Integration weight cutoff        WCut        ... 1.0000e-14
Angular grids for H and He will be reduced by one unit
Partially contracted basis set               ... on
Rotationally invariant grid construction     ... off

Total number of grid points                  ...    90344
Total number of batches                      ...     1421
Average number of points per batch           ...       63
Average number of grid points per atom       ...     5314
UseSFitting                                  ... on

Time for X-Grid setup             =    4.023 sec

--------------
SCF ITERATIONS
--------------
ITER       Energy         Delta-E        Max-DP      RMS-DP      [F,P]     Damp
               ***  Starting incremental Fock matrix formation  ***
  0   -362.1375188740   0.000000000000 0.18429522  0.00532946  0.5172099 0.7000
  1   -362.5128403557  -0.375321481720 0.10054216  0.00342327  0.2917785 0.7000
  2   -362.7284687553  -0.215628399589 0.05411682  0.00215781  0.2046861 0.7000
                               ***Turning on DIIS***
  3   -362.8755638892  -0.147095133952 0.02898810  0.00149248  0.1441605 0.7000
  4   -362.9805611815  -0.104997292317 0.02483967  0.00114750  0.1013786 0.7000
  5   -363.0550628488  -0.074501667260 0.06106666  0.00283743  0.0709174 0.0000
                      *** Initiating the SOSCF procedure ***
                           *** Shutting down DIIS ***
                      *** Re-Reading the Fockian *** 
                      *** Removing any level shift *** 
ITER      Energy       Delta-E        Grad      Rot      Max-DP    RMS-DP
  6   -363.23244286  -0.1773800133  0.001538  0.001538  0.002723  0.000123
               *** Restarting incremental Fock matrix formation ***
  7   -363.23250828  -0.0000654214  0.000648  0.000907  0.002208  0.000074
  8   -363.23251896  -0.0000106760  0.000553  0.000577  0.001001  0.000035
  9   -363.23252396  -0.0000049957  0.000094  0.000117  0.000254  0.000009
 10   -363.23252413  -0.0000001776  0.000039  0.000089  0.000081  0.000003
 11   -363.23252415  -0.0000000202  0.000033  0.000049  0.000061  0.000002
 12   -363.23252416  -0.0000000104  0.000011  0.000024  0.000028  0.000001
 13   -363.23252417  -0.0000000040  0.000006  0.000010  0.000012  0.000000
                  ***Gradient check signals convergence***
              ***Rediagonalizing the Fockian in SOSCF/NRSCF***

               *****************************************************
               *                     SUCCESS                       *
               *           SCF CONVERGED AFTER  14 CYCLES          *
               *****************************************************

Old exchange energy                            =    -20.622769817 Eh
New exchange energy                            =    -20.622762259 Eh
Exchange energy change after final integration =      0.000007558 Eh
Total energy after final integration           =   -363.232516608 Eh
Final COS-X integration done in                =     5.111 sec

----------------
TOTAL SCF ENERGY
----------------

Total Energy       :         -363.23251661 Eh           -9884.05927 eV

Components:
Nuclear Repulsion  :          337.49488470 Eh            9183.70270 eV
Electronic Energy  :         -700.72740131 Eh          -19067.76198 eV
One Electron Energy:        -1160.53770835 Eh          -31579.83653 eV
Two Electron Energy:          459.81030705 Eh           12512.07456 eV
Max COSX asymmetry :            0.00000161 Eh               0.00004 eV

Virial components:
Potential Energy   :         -723.70677949 Eh          -19693.06265 eV
Kinetic Energy     :          360.47426289 Eh            9809.00337 eV
Virial Ratio       :            2.00765174


DFT components:
N(Alpha)           :       29.999996254572 electrons
N(Beta)            :       29.999996254572 electrons
N(Total)           :       59.999992509144 electrons
E(X)               :      -27.408929507663 Eh       
E(C)               :       -2.599317874203 Eh       
E(XC)              :      -30.008247381867 Eh       
DFET-embed. en.    :        0.000000000000 Eh       

---------------
SCF CONVERGENCE
---------------

  Last Energy change         ...    1.0384e-09  Tolerance :   1.0000e-08
  Last MAX-Density change    ...    2.5535e-15  Tolerance :   1.0000e-07
  Last RMS-Density change    ...    4.7782e-17  Tolerance :   5.0000e-09
  Last Orbital Gradient      ...    7.5872e-07  Tolerance :   1.0000e-05
  Last Orbital Rotation      ...    1.3920e-06  Tolerance :   1.0000e-05

             **** THE GBW FILE WAS UPDATED (pbeh-3c.gbw) ****
             **** DENSITY pbeh-3c.scfp WAS UPDATED ****
             **** ENERGY FILE WAS UPDATED (pbeh-3c.en.tmp) ****
             **** THE GBW FILE WAS UPDATED (pbeh-3c.gbw) ****
             **** DENSITY pbeh-3c.scfp WAS UPDATED ****
----------------
ORBITAL ENERGIES
----------------

  NO   OCC          E(Eh)            E(eV) 
   0   2.0000     -19.440303      -528.9975 
   1   2.0000     -14.665303      -399.0632 
   2   2.0000     -10.500593      -285.7357 
   3   2.0000     -10.500570      -285.7350 
   4   2.0000     -10.485779      -285.3325 
   5   2.0000     -10.473740      -285.0049 
   6   2.0000     -10.473727      -285.0046 
   7   2.0000     -10.447397      -284.2881 
   8   2.0000      -1.080794       -29.4099 
   9   2.0000      -1.066109       -29.0103 
  10   2.0000      -0.917972       -24.9793 
  11   2.0000      -0.871605       -23.7176 
  12   2.0000      -0.730906       -19.8890 
  13   2.0000      -0.727137       -19.7864 
  14   2.0000      -0.724974       -19.7275 
  15   2.0000      -0.618167       -16.8212 
  16   2.0000      -0.564629       -15.3643 
  17   2.0000      -0.551849       -15.0166 
  18   2.0000      -0.537117       -14.6157 
  19   2.0000      -0.507994       -13.8232 
  20   2.0000      -0.482760       -13.1366 
  21   2.0000      -0.474399       -12.9091 
  22   2.0000      -0.469731       -12.7820 
  23   2.0000      -0.449842       -12.2408 
  24   2.0000      -0.437736       -11.9114 
  25   2.0000      -0.367438        -9.9985 
  26   2.0000      -0.350876        -9.5478 
  27   2.0000      -0.328493        -8.9388 
  28   2.0000      -0.321392        -8.7455 
  29   2.0000      -0.289910        -7.8889 
  30   0.0000      -0.022304        -0.6069 
  31   0.0000      -0.005900        -0.1605 
  32   0.0000       0.127977         3.4824 
  33   0.0000       0.165720         4.5095 
  34   0.0000       0.172704         4.6995 
  35   0.0000       0.184839         5.0297 
  36   0.0000       0.191843         5.2203 
  37   0.0000       0.208010         5.6602 
  38   0.0000       0.220730         6.0064 
  39   0.0000       0.229170         6.2360 
  40   0.0000       0.245992         6.6938 
  41   0.0000       0.254405         6.9227 
  42   0.0000       0.261151         7.1063 
  43   0.0000       0.301685         8.2093 
  44   0.0000       0.316395         8.6095 
  45   0.0000       0.324646         8.8341 
  46   0.0000       0.364135         9.9086 
  47   0.0000       0.410083        11.1589 
  48   0.0000       0.466017        12.6810 
  49   0.0000       0.490248        13.3403 
  50   0.0000       0.530152        14.4262 
  51   0.0000       0.533510        14.5175 
  52   0.0000       0.552456        15.0331 
  53   0.0000       0.561469        15.2783 
  54   0.0000       0.573822        15.6145 
  55   0.0000       0.588623        16.0172 
  56   0.0000       0.592204        16.1147 
  57   0.0000       0.601061        16.3557 
  58   0.0000       0.607568        16.5328 
  59   0.0000       0.632499        17.2112 
  60   0.0000       0.634361        17.2619 
  61   0.0000       0.667959        18.1761 
  62   0.0000       0.682636        18.5755 
  63   0.0000       0.718380        19.5481 
  64   0.0000       0.807991        21.9866 
  65   0.0000       0.895502        24.3678 
  66   0.0000       0.910137        24.7661 
  67   0.0000       0.933650        25.4059 
  68   0.0000       0.933767        25.4091 
  69   0.0000       0.950129        25.8543 
  70   0.0000       0.978110        26.6157 
  71   0.0000       1.011254        27.5176 
  72   0.0000       1.016611        27.6634 
  73   0.0000       1.024554        27.8795 
  74   0.0000       1.033351        28.1189 
  75   0.0000       1.035231        28.1701 
  76   0.0000       1.052754        28.6469 
  77   0.0000       1.062603        28.9149 
  78   0.0000       1.068170        29.0664 
  79   0.0000       1.084119        29.5004 
  80   0.0000       1.125504        30.6265 
  81   0.0000       1.134913        30.8826 
  82   0.0000       1.170833        31.8600 
  83   0.0000       1.185800        32.2673 
  84   0.0000       1.257691        34.2235 
  85   0.0000       1.278003        34.7762 
  86   0.0000       1.292656        35.1750 
  87   0.0000       1.323500        36.0143 
  88   0.0000       1.407929        38.3117 
  89   0.0000       1.496372        40.7183 
  90   0.0000       1.512515        41.1576 
  91   0.0000       1.517997        41.3068 
  92   0.0000       1.553515        42.2733 
  93   0.0000       1.556506        42.3547 
  94   0.0000       1.593077        43.3498 
  95   0.0000       1.637642        44.5625 
  96   0.0000       1.727725        47.0138 
  97   0.0000       1.791412        48.7468 
  98   0.0000       1.834406        49.9167 
  99   0.0000       1.864232        50.7283 
 100   0.0000       1.878256        51.1099 
 101   0.0000       1.950126        53.0656 
 102   0.0000       1.981382        53.9162 
 103   0.0000       2.035121        55.3785 
 104   0.0000       2.105204        57.2855 
 105   0.0000       2.165868        58.9363 
 106   0.0000       2.179982        59.3203 
 107   0.0000       2.187809        59.5333 
 108   0.0000       2.209612        60.1266 
 109   0.0000       2.216948        60.3262 
 110   0.0000       2.217689        60.3464 
 111   0.0000       2.223301        60.4991 
 112   0.0000       2.239032        60.9272 
 113   0.0000       2.337819        63.6153 
 114   0.0000       2.364606        64.3442 
 115   0.0000       2.422629        65.9231 
 116   0.0000       2.478801        67.4516 
 117   0.0000       2.528485        68.8036 
 118   0.0000       2.570485        69.9465 
 119   0.0000       2.582624        70.2768 
 120   0.0000       2.669233        72.6335 
 121   0.0000       2.694542        73.3222 
 122   0.0000       2.710951        73.7687 
 123   0.0000       2.746059        74.7241 
 124   0.0000       2.780403        75.6586 
 125   0.0000       2.811475        76.5041 
 126   0.0000       2.836086        77.1738 
 127   0.0000       2.934727        79.8580 
 128   0.0000       3.059605        83.2561 
 129   0.0000       3.444845        93.7390 
 130   0.0000      13.316867       362.3704 
 131   0.0000      13.601982       370.1287 
 132   0.0000      13.758771       374.3952 
 133   0.0000      13.862064       377.2059 
 134   0.0000      14.104521       383.8035 
 135   0.0000      14.300609       389.1394 
 136   0.0000      19.423709       528.5460 
 137   0.0000      25.593943       696.4466 

                    ********************************
                    * MULLIKEN POPULATION ANALYSIS *
                    ********************************

-----------------------
MULLIKEN ATOMIC CHARGES
-----------------------
   0 O :   -0.668021
   1 H :    0.450838
   2 C :   -0.365224
   3 H :    0.201573
   4 H :    0.166203
   5 H :    0.166175
   6 N :   -0.442935
   7 C :    0.005608
   8 H :    0.249585
   9 C :   -0.311168
  10 H :    0.241214
  11 C :   -0.122106
  12 H :    0.242916
  13 C :   -0.311054
  14 H :    0.241234
  15 C :    0.005535
  16 H :    0.249628
Sum of atomic charges:   -0.0000000

--------------------------------
MULLIKEN REDUCED ORBITAL CHARGES
--------------------------------
  0 O s       :     3.810579  s :     3.810579
      pz      :     1.926799  p :     4.828758
      px      :     1.483457
      py      :     1.418501
      dz2     :     0.005134  d :     0.028685
      dxz     :     0.000741
      dyz     :     0.003493
      dx2y2   :     0.016264
      dxy     :     0.003053
  1 H s       :     0.549162  s :     0.549162
  2 C s       :     3.308585  s :     3.308585
      pz      :     1.091853  p :     2.992427
      px      :     1.123458
      py      :     0.777116
      dz2     :     0.009645  d :     0.064213
      dxz     :     0.003508
      dyz     :     0.022031
      dx2y2   :     0.019102
      dxy     :     0.009928
  3 H s       :     0.798427  s :     0.798427
  4 H s       :     0.833797  s :     0.833797
  5 H s       :     0.833825  s :     0.833825
  6 N s       :     3.632416  s :     3.632416
      pz      :     1.042100  p :     3.769475
      px      :     1.574767
      py      :     1.152608
      dz2     :     0.006757  d :     0.041045
      dxz     :     0.016140
      dyz     :     0.007220
      dx2y2   :     0.004651
      dxy     :     0.006277
  7 C s       :     3.153691  s :     3.153691
      pz      :     0.932319  p :     2.781816
      px      :     0.927588
      py      :     0.921910
      dz2     :     0.016842  d :     0.058885
      dxz     :     0.022475
      dyz     :     0.005681
      dx2y2   :     0.006958
      dxy     :     0.006930
  8 H s       :     0.750415  s :     0.750415
  9 C s       :     3.274475  s :     3.274475
      pz      :     1.054337  p :     2.998518
      px      :     0.939339
      py      :     1.004843
      dz2     :     0.011034  d :     0.038174
      dxz     :     0.013176
      dyz     :     0.003385
      dx2y2   :     0.005793
      dxy     :     0.004786
 10 H s       :     0.758786  s :     0.758786
 11 C s       :     3.229505  s :     3.229505
      pz      :     0.902348  p :     2.852074
      px      :     1.020848
      py      :     0.928878
      dz2     :     0.012049  d :     0.040527
      dxz     :     0.011338
      dyz     :     0.007029
      dx2y2   :     0.007478
      dxy     :     0.002633
 12 H s       :     0.757084  s :     0.757084
 13 C s       :     3.274436  s :     3.274436
      pz      :     1.054674  p :     2.998444
      px      :     0.938932
      py      :     1.004839
      dz2     :     0.011044  d :     0.038174
      dxz     :     0.013165
      dyz     :     0.003381
      dx2y2   :     0.005794
      dxy     :     0.004790
 14 H s       :     0.758766  s :     0.758766
 15 C s       :     3.153765  s :     3.153765
      pz      :     0.932107  p :     2.781815
      px      :     0.927831
      py      :     0.921877
      dz2     :     0.016830  d :     0.058885
      dxz     :     0.022496
      dyz     :     0.005692
      dx2y2   :     0.006949
      dxy     :     0.006919
 16 H s       :     0.750372  s :     0.750372


                     *******************************
                     * LOEWDIN POPULATION ANALYSIS *
                     *******************************

----------------------
LOEWDIN ATOMIC CHARGES
----------------------
   0 O :   -0.450811
   1 H :    0.293269
   2 C :   -0.197871
   3 H :    0.112373
   4 H :    0.087656
   5 H :    0.087655
   6 N :   -0.141491
   7 C :   -0.045874
   8 H :    0.137591
   9 C :   -0.158606
  10 H :    0.146346
  11 C :   -0.094541
  12 H :    0.144798
  13 C :   -0.158595
  14 H :    0.146350
  15 C :   -0.045865
  16 H :    0.137615

-------------------------------
LOEWDIN REDUCED ORBITAL CHARGES
-------------------------------
  0 O s       :     3.523207  s :     3.523207
      pz      :     1.923538  p :     4.877522
      px      :     1.471187
      py      :     1.482797
      dz2     :     0.006989  d :     0.050082
      dxz     :     0.001062
      dyz     :     0.007266
      dx2y2   :     0.027098
      dxy     :     0.007668
  1 H s       :     0.706731  s :     0.706731
  2 C s       :     2.949678  s :     2.949678
      pz      :     1.118123  p :     3.120341
      px      :     1.120488
      py      :     0.881729
      dz2     :     0.018273  d :     0.127852
      dxz     :     0.005575
      dyz     :     0.044406
      dx2y2   :     0.039253
      dxy     :     0.020346
  3 H s       :     0.887627  s :     0.887627
  4 H s       :     0.912344  s :     0.912344
  5 H s       :     0.912345  s :     0.912345
  6 N s       :     3.204353  s :     3.204353
      pz      :     1.163564  p :     3.847469
      px      :     1.550796
      py      :     1.133109
      dz2     :     0.023214  d :     0.089669
      dxz     :     0.036842
      dyz     :     0.016360
      dx2y2   :     0.006426
      dxy     :     0.006826
  7 C s       :     2.888503  s :     2.888503
      pz      :     1.033792  p :     3.027020
      px      :     1.072932
      py      :     0.920296
      dz2     :     0.037725  d :     0.130352
      dxz     :     0.051396
      dyz     :     0.009801
      dx2y2   :     0.017646
      dxy     :     0.013785
  8 H s       :     0.862409  s :     0.862409
  9 C s       :     2.901851  s :     2.901851
      pz      :     1.085782  p :     3.169309
      px      :     1.091082
      py      :     0.992445
      dz2     :     0.025170  d :     0.087446
      dxz     :     0.032859
      dyz     :     0.005722
      dx2y2   :     0.013976
      dxy     :     0.009720
 10 H s       :     0.853654  s :     0.853654
 11 C s       :     2.897981  s :     2.897981
      pz      :     1.095716  p :     3.105746
      px      :     1.086922
      py      :     0.923107
      dz2     :     0.030470  d :     0.090814
      dxz     :     0.029585
      dyz     :     0.014533
      dx2y2   :     0.012402
      dxy     :     0.003823
 12 H s       :     0.855202  s :     0.855202
 13 C s       :     2.901840  s :     2.901840
      pz      :     1.085785  p :     3.169309
      px      :     1.091088
      py      :     0.992436
      dz2     :     0.025180  d :     0.087446
      dxz     :     0.032841
      dyz     :     0.005710
      dx2y2   :     0.013985
      dxy     :     0.009730
 14 H s       :     0.853650  s :     0.853650
 15 C s       :     2.888519  s :     2.888519
      pz      :     1.033707  p :     3.026997
      px      :     1.073018
      py      :     0.920273
      dz2     :     0.037703  d :     0.130349
      dxz     :     0.051450
      dyz     :     0.009824
      dx2y2   :     0.017611
      dxy     :     0.013761
 16 H s       :     0.862385  s :     0.862385


                      *****************************
                      * MAYER POPULATION ANALYSIS *
                      *****************************

  NA   - Mulliken gross atomic population
  ZA   - Total nuclear charge
  QA   - Mulliken gross atomic charge
  VA   - Mayer's total valence
  BVA  - Mayer's bonded valence
  FA   - Mayer's free valence

  ATOM       NA         ZA         QA         VA         BVA        FA
  0 O      8.6680     8.0000    -0.6680     1.7923     1.7923    -0.0000
  1 H      0.5492     1.0000     0.4508     0.8017     0.8017    -0.0000
  2 C      6.3652     6.0000    -0.3652     3.8211     3.8211    -0.0000
  3 H      0.7984     1.0000     0.2016     0.9142     0.9142     0.0000
  4 H      0.8338     1.0000     0.1662     0.9134     0.9134    -0.0000
  5 H      0.8338     1.0000     0.1662     0.9134     0.9134    -0.0000
  6 N      7.4429     7.0000    -0.4429     3.1384     3.1384    -0.0000
  7 C      5.9944     6.0000     0.0056     3.7921     3.7921     0.0000
  8 H      0.7504     1.0000     0.2496     0.8951     0.8951    -0.0000
  9 C      6.3112     6.0000    -0.3112     3.8106     3.8106    -0.0000
 10 H      0.7588     1.0000     0.2412     0.9101     0.9101    -0.0000
 11 C      6.1221     6.0000    -0.1221     3.7308     3.7308    -0.0000
 12 H      0.7571     1.0000     0.2429     0.9034     0.9034    -0.0000
 13 C      6.3111     6.0000    -0.3111     3.8106     3.8106    -0.0000
 14 H      0.7588     1.0000     0.2412     0.9101     0.9101    -0.0000
 15 C      5.9945     6.0000     0.0055     3.7920     3.7920    -0.0000
 16 H      0.7504     1.0000     0.2496     0.8951     0.8951     0.0000

  Mayer bond orders larger than 0.100000
B(  0-O ,  1-H ) :   0.7001 B(  0-O ,  2-C ) :   1.0506 B(  2-C ,  3-H ) :   0.9293 
B(  2-C ,  4-H ) :   0.9198 B(  2-C ,  5-H ) :   0.9198 B(  6-N ,  7-C ) :   1.4480 
B(  6-N , 15-C ) :   1.4478 B(  7-C ,  8-H ) :   0.9095 B(  7-C ,  9-C ) :   1.3902 
B(  9-C , 10-H ) :   0.9107 B(  9-C , 11-C ) :   1.4058 B( 11-C , 12-H ) :   0.9158 
B( 11-C , 13-C ) :   1.4058 B( 13-C , 14-H ) :   0.9107 B( 13-C , 15-C ) :   1.3903 
B( 15-C , 16-H ) :   0.9095 

-------
TIMINGS
-------

Total SCF time: 0 days 0 hours 1 min 43 sec 

Total time                  ....     103.996 sec
Sum of individual times     ....      95.398 sec  ( 91.7%)

Fock matrix formation       ....      81.651 sec  ( 78.5%)
  Split-RI-J                ....       8.595 sec  ( 10.5% of F)
  Chain of spheres X        ....      33.580 sec  ( 41.1% of F)
  XC integration            ....      21.322 sec  ( 26.1% of F)
    Basis function eval.    ....       3.525 sec  ( 16.5% of XC)
    Density eval.           ....       2.038 sec  (  9.6% of XC)
    XC-Functional eval.     ....       1.618 sec  (  7.6% of XC)
    XC-Potential eval.      ....       1.088 sec  (  5.1% of XC)
Diagonalization             ....       0.755 sec  (  0.7%)
Density matrix formation    ....       0.074 sec  (  0.1%)
Population analysis         ....       1.163 sec  (  1.1%)
Initial guess               ....       0.091 sec  (  0.1%)
Orbital Transformation      ....       0.000 sec  (  0.0%)
Orbital Orthonormalization  ....       0.000 sec  (  0.0%)
DIIS solution               ....       1.765 sec  (  1.7%)
SOSCF solution              ....       1.468 sec  (  1.4%)
Grid generation             ....       8.431 sec  (  8.1%)

Maximum memory used throughout the entire SCF-calculation: 55.3 MB


-------------------------------------------------------------------------------
                          DFT DISPERSION CORRECTION                            
                                                                               
                              DFTD3 V3.1  Rev 1                                
                          USING Becke-Johnson damping                          
-------------------------------------------------------------------------------
The PBEh-3c composite method is recognized
Using three-body term ABC
Active option DFTDOPT                   ...         4   

molecular C6(AA) [au] = 2777.716912 


            DFT-D V3
 parameters
 s6 scaling factor         :     1.0000 
 a1 scaling factor         :     0.4860 
 s8 scaling factor         :     0.0000 
 a2 scaling factor         :     4.5000 
 Damping factor alpha9(ATM):    16.0000 
 ad hoc parameters k1-k3   :    16.0000     1.3333    -4.0000 

 Edisp/kcal,au: -4.899663880912  -0.007808110572 
 E6   /kcal   :  -4.901143549 
 E8   /kcal   :  -0.000000000 
 E6(ABC)      :   0.001479668 
 % E8         :   0.000000000 
 % E6(ABC)    :  -0.030199378 

-------------------------   ----------------
Dispersion correction           -0.007808111
-------------------------   ----------------

------------------   -----------------
gCP correction             0.030948766
------------------   -----------------

-------------------------   --------------------
FINAL SINGLE POINT ENERGY      -363.209375952536
-------------------------   --------------------


                            ***************************************
                            *     ORCA property calculations      *
                            ***************************************

                                    ---------------------
                                    Active property flags
                                    ---------------------
   (+) Dipole Moment


------------------------------------------------------------------------------
                       ORCA ELECTRIC PROPERTIES CALCULATION
------------------------------------------------------------------------------

Dipole Moment Calculation                       ... on
Quadrupole Moment Calculation                   ... off
Polarizability Calculation                      ... off
GBWName                                         ... pbeh-3c.gbw
Electron density                                ... pbeh-3c.scfp
The origin for moment calculation is the CENTER OF MASS  = ( 0.267525,  0.354459 -0.000219)

-------------
DIPOLE MOMENT
-------------
                                X             Y             Z
Electronic contribution:      5.42548       2.67029      -0.00301
Nuclear contribution   :     -3.55181      -3.12936       0.00226
                        -----------------------------------------
Total Dipole Moment    :      1.87366      -0.45907      -0.00076
                        -----------------------------------------
Magnitude (a.u.)       :      1.92908
Magnitude (Debye)      :      4.90334



--------------------
Rotational spectrum 
--------------------
 
Rotational constants in cm-1:     0.163542     0.029969     0.026764 
Rotational constants in MHz :  4902.852392   898.457599   802.353468 

 Dipole components along the rotational axes: 
x,y,z [a.u.] :    -1.811762     0.000262     0.662478 
x,y,z [Debye]:    -4.605134     0.000665     1.683886 

 

Timings for individual modules:

Sum of individual times         ...      107.806 sec (=   1.797 min)
GTO integral calculation        ...        2.961 sec (=   0.049 min)   2.7 %
SCF iterations                  ...      104.844 sec (=   1.747 min)  97.3 %
                             ****ORCA TERMINATED NORMALLY****
TOTAL RUN TIME: 0 days 0 hours 1 minutes 52 seconds 375 msec
