
                                 *****************
                                 * O   R   C   A *
                                 *****************

                                            #,                                       
                                            ###                                      
                                            ####                                     
                                            #####                                    
                                            ######                                   
                                           ########,                                 
                                     ,,################,,,,,                         
                               ,,#################################,,                 
                          ,,##########################################,,             
                       ,#########################################, ''#####,          
                    ,#############################################,,   '####,        
                  ,##################################################,,,,####,       
                ,###########''''           ''''###############################       
              ,#####''   ,,,,##########,,,,          '''####'''          '####       
            ,##' ,,,,###########################,,,                        '##       
           ' ,,###''''                  '''############,,,                           
         ,,##''                                '''############,,,,        ,,,,,,###''
      ,#''                                            '''#######################'''  
     '                                                          ''''####''''         
             ,#######,   #######,   ,#######,      ##                                
            ,#'     '#,  ##    ##  ,#'     '#,    #''#        ######   ,####,        
            ##       ##  ##   ,#'  ##            #'  '#       #        #'  '#        
            ##       ##  #######   ##           ,######,      #####,   #    #        
            '#,     ,#'  ##    ##  '#,     ,#' ,#      #,         ##   #,  ,#        
             '#######'   ##     ##  '#######'  #'      '#     #####' # '####'        



                  #######################################################
                  #                        -***-                        #
                  #          Department of theory and spectroscopy      #
                  #    Directorship and core code : Frank Neese         #
                  #        Max Planck Institute fuer Kohlenforschung    #
                  #                Kaiser Wilhelm Platz 1               #
                  #                 D-45470 Muelheim/Ruhr               #
                  #                      Germany                        #
                  #                                                     #
                  #                  All rights reserved                #
                  #                        -***-                        #
                  #######################################################


                         Program Version 5.0.3 -  RELEASE  -


 With contributions from (in alphabetic order):
   Daniel Aravena         : Magnetic Suceptibility
   Michael Atanasov       : Ab Initio Ligand Field Theory (pilot matlab implementation)
   Alexander A. Auer      : GIAO ZORA, VPT2 properties, NMR spectrum
   Ute Becker             : Parallelization
   Giovanni Bistoni       : ED, misc. LED, open-shell LED, HFLD
   Martin Brehm           : Molecular dynamics
   Dmytro Bykov           : SCF Hessian
   Vijay G. Chilkuri      : MRCI spin determinant printing, contributions to CSF-ICE
   Dipayan Datta          : RHF DLPNO-CCSD density
   Achintya Kumar Dutta   : EOM-CC, STEOM-CC
   Dmitry Ganyushin       : Spin-Orbit,Spin-Spin,Magnetic field MRCI
   Miquel Garcia          : C-PCM and meta-GGA Hessian, CC/C-PCM, Gaussian charge scheme
   Yang Guo               : DLPNO-NEVPT2, F12-NEVPT2, CIM, IAO-localization
   Andreas Hansen         : Spin unrestricted coupled pair/coupled cluster methods
   Benjamin Helmich-Paris : MC-RPA, TRAH-SCF, COSX integrals
   Lee Huntington         : MR-EOM, pCC
   Robert Izsak           : Overlap fitted RIJCOSX, COSX-SCS-MP3, EOM
   Marcus Kettner         : VPT2
   Christian Kollmar      : KDIIS, OOCD, Brueckner-CCSD(T), CCSD density, CASPT2, CASPT2-K
   Simone Kossmann        : Meta GGA functionals, TD-DFT gradient, OOMP2, MP2 Hessian
   Martin Krupicka        : Initial AUTO-CI
   Lucas Lang             : DCDCAS
   Marvin Lechner         : AUTO-CI (C++ implementation), FIC-MRCC
   Dagmar Lenk            : GEPOL surface, SMD
   Dimitrios Liakos       : Extrapolation schemes; Compound Job, initial MDCI parallelization
   Dimitrios Manganas     : Further ROCIS development; embedding schemes
   Dimitrios Pantazis     : SARC Basis sets
   Anastasios Papadopoulos: AUTO-CI, single reference methods and gradients
   Taras Petrenko         : DFT Hessian,TD-DFT gradient, ASA, ECA, R-Raman, ABS, FL, XAS/XES, NRVS
   Peter Pinski           : DLPNO-MP2, DLPNO-MP2 Gradient
   Christoph Reimann      : Effective Core Potentials
   Marius Retegan         : Local ZFS, SOC
   Christoph Riplinger    : Optimizer, TS searches, QM/MM, DLPNO-CCSD(T), (RO)-DLPNO pert. Triples
   Tobias Risthaus        : Range-separated hybrids, TD-DFT gradient, RPA, STAB
   Michael Roemelt        : Original ROCIS implementation
   Masaaki Saitow         : Open-shell DLPNO-CCSD energy and density
   Barbara Sandhoefer     : DKH picture change effects
   Avijit Sen             : IP-ROCIS
   Kantharuban Sivalingam : CASSCF convergence, NEVPT2, FIC-MRCI
   Bernardo de Souza      : ESD, SOC TD-DFT
   Georgi Stoychev        : AutoAux, RI-MP2 NMR, DLPNO-MP2 response
   Willem Van den Heuvel  : Paramagnetic NMR
   Boris Wezisla          : Elementary symmetry handling
   Frank Wennmohs         : Technical directorship


 We gratefully acknowledge several colleagues who have allowed us to
 interface, adapt or use parts of their codes:
   Stefan Grimme, W. Hujo, H. Kruse, P. Pracht,  : VdW corrections, initial TS optimization,
                  C. Bannwarth, S. Ehlert          DFT functionals, gCP, sTDA/sTD-DF
   Ed Valeev, F. Pavosevic, A. Kumar             : LibInt (2-el integral package), F12 methods
   Garnet Chan, S. Sharma, J. Yang, R. Olivares  : DMRG
   Ulf Ekstrom                                   : XCFun DFT Library
   Mihaly Kallay                                 : mrcc  (arbitrary order and MRCC methods)
   Jiri Pittner, Ondrej Demel                    : Mk-CCSD
   Frank Weinhold                                : gennbo (NPA and NBO analysis)
   Christopher J. Cramer and Donald G. Truhlar   : smd solvation model
   Lars Goerigk                                  : TD-DFT with DH, B97 family of functionals
   V. Asgeirsson, H. Jonsson                     : NEB implementation
   FAccTs GmbH                                   : IRC, NEB, NEB-TS, DLPNO-Multilevel, CI-OPT
                                                   MM, QMMM, 2- and 3-layer-ONIOM, Crystal-QMMM,
                                                   LR-CPCM, SF, NACMEs, symmetry and pop. for TD-DFT,
                                                   nearIR, NL-DFT gradient (VV10), updates on ESD,
                                                   ML-optimized integration grids
   S Lehtola, MJT Oliveira, MAL Marques          : LibXC Library
   Liviu Ungur et al                             : ANISO software


 Your calculation uses the libint2 library for the computation of 2-el integrals
 For citations please refer to: http://libint.valeyev.net

 Your ORCA version has been built with support for libXC version: 5.1.0
 For citations please refer to: https://tddft.org/programs/libxc/

 This ORCA versions uses:
   CBLAS   interface :  Fast vector & matrix operations
   LAPACKE interface :  Fast linear algebra routines
   SCALAPACK package :  Parallel linear algebra routines
   Shared memory     :  Shared parallel matrices
   BLAS/LAPACK       :  OpenBLAS 0.3.15  USE64BITINT DYNAMIC_ARCH NO_AFFINITY Haswell SINGLE_THREADED
        Core in use  :  Haswell
   Copyright (c) 2011-2014, The OpenBLAS Project




***************************************
The coordinates will be read from file: 5e.xyz
***************************************


Your calculation utilizes the geometrical counterpoise correction gCP
Please cite in your paper:
H.Kruse, S. Grimme J.Chem.Phys., 136, (2012), 154101 
   

Your calculation utilizes the atom-pairwise dispersion correction
with the Becke-Johnson damping scheme (D3BJ)
Cite in your paper:
S.Grimme, S.Ehrlich, L.Goerigk, J Comput Chem, (2011), 32, 1456–1465 
S.Grimme, J.Antony, S.Ehrlich and H.Krieg, J.Chem.Phys., 132, (2010), 154104 
   

Your calculation employs the composite approach PBEh-3c.
Please cite in your paper:
S. Grimme, J. G. Brandenburg, C. Bannwarth, A. Hansen J.Chem.Phys., 143, (2015), 054107 
   

================================================================================

----- Orbital basis set information -----
Your calculation utilizes the basis: def2-mSVP

----- AuxJ basis set information -----
Your calculation utilizes the auxiliary basis: def2/J
   F. Weigend, Phys. Chem. Chem. Phys. 8, 1057 (2006).

================================================================================
                                        WARNINGS
                       Please study these warnings very carefully!
================================================================================


WARNING: your system is open-shell and RHF/RKS was chosen
  ===> : WILL SWITCH to UHF/UKS


INFO   : the flag for use of the SHARK integral package has been found!

================================================================================
                                       INPUT FILE
================================================================================
NAME = pbeh-3c.inp
|  1> ! PBEh-3c def2/J TightSCF DefGrid3
|  2> 
|  3> %maxcore 60000
|  4> 
|  5> %pal
|  6> nprocs 4
|  7> end
|  8> 
|  9> *xyzfile 1 2 5e.xyz
| 10> 
| 11>                          ****END OF INPUT****
================================================================================

                       ****************************
                       * Single Point Calculation *
                       ****************************

---------------------------------
CARTESIAN COORDINATES (ANGSTROEM)
---------------------------------
  C     -1.793478   -0.765851    0.000000
  C     -0.334325   -0.871489    0.000000
  C      0.334325    0.871489    0.000000
  C      1.793478    0.765851    0.000000
  H     -2.125453   -1.828536    0.000000
  H     -2.213287   -0.323443   -0.903851
  H     -2.213287   -0.323443    0.903851
  H      0.146371   -1.215292   -0.913717
  H      0.146371   -1.215292    0.913717
  H     -0.146371    1.215292    0.913717
  H     -0.146371    1.215292   -0.913717
  H      2.213287    0.323443    0.903851
  H      2.125453    1.828536    0.000000
  H      2.213287    0.323443   -0.903851

----------------------------
CARTESIAN COORDINATES (A.U.)
----------------------------
  NO LB      ZA    FRAG     MASS         X           Y           Z
   0 C     6.0000    0    12.011   -3.389182   -1.447249    0.000000
   1 C     6.0000    0    12.011   -0.631782   -1.646876    0.000000
   2 C     6.0000    0    12.011    0.631782    1.646876    0.000000
   3 C     6.0000    0    12.011    3.389182    1.447249    0.000000
   4 H     1.0000    0     1.008   -4.016524   -3.455433    0.000000
   5 H     1.0000    0     1.008   -4.182506   -0.611218   -1.708030
   6 H     1.0000    0     1.008   -4.182506   -0.611218    1.708030
   7 H     1.0000    0     1.008    0.276602   -2.296569   -1.726675
   8 H     1.0000    0     1.008    0.276602   -2.296569    1.726675
   9 H     1.0000    0     1.008   -0.276602    2.296569    1.726675
  10 H     1.0000    0     1.008   -0.276602    2.296569   -1.726675
  11 H     1.0000    0     1.008    4.182506    0.611218    1.708030
  12 H     1.0000    0     1.008    4.016524    3.455433    0.000000
  13 H     1.0000    0     1.008    4.182506    0.611218   -1.708030

--------------------------------
INTERNAL COORDINATES (ANGSTROEM)
--------------------------------
 C      0   0   0     0.000000000000     0.00000000     0.00000000
 C      1   0   0     1.462972349417     0.00000000     0.00000000
 C      2   1   0     1.866833116607   106.84721180     0.00000000
 C      3   2   1     1.462972349417   106.84721180   180.00000000
 H      1   2   3     1.113331777435   103.20761488   180.00000000
 H      1   2   3     1.090371850163   114.41277080    65.55084866
 H      1   2   3     1.090371850163   114.41277080   294.44915134
 H      2   1   3     1.088185653874   117.60679762   251.36083012
 H      2   1   3     1.088185653874   117.60679762   108.63916988
 H      3   2   1     1.088185653874    97.86044974    57.95531115
 H      3   2   1     1.088185653874    97.86044974   302.04468885
 H      4   3   2     1.090371850163   114.41277080   294.44915134
 H      4   3   2     1.113331777435   103.20761488   180.00000000
 H      4   3   2     1.090371850163   114.41277080    65.55084866

---------------------------
INTERNAL COORDINATES (A.U.)
---------------------------
 C      0   0   0     0.000000000000     0.00000000     0.00000000
 C      1   0   0     2.764617081897     0.00000000     0.00000000
 C      2   1   0     3.527803328121   106.84721180     0.00000000
 C      3   2   1     2.764617081897   106.84721180   180.00000000
 H      1   2   3     2.103892155544   103.20761488   180.00000000
 H      1   2   3     2.060504180944   114.41277080    65.55084866
 H      1   2   3     2.060504180944   114.41277080   294.44915134
 H      2   1   3     2.056372868684   117.60679762   251.36083012
 H      2   1   3     2.056372868684   117.60679762   108.63916988
 H      3   2   1     2.056372868684    97.86044974    57.95531115
 H      3   2   1     2.056372868684    97.86044974   302.04468885
 H      4   3   2     2.060504180944   114.41277080   294.44915134
 H      4   3   2     2.103892155544   103.20761488   180.00000000
 H      4   3   2     2.060504180944   114.41277080    65.55084866

---------------------
BASIS SET INFORMATION
---------------------
There are 2 groups of distinct atoms

 Group   1 Type C   : 8s4p1d contracted to 4s2p1d pattern {5111/31/1}
 Group   2 Type H   : 4s contracted to 2s pattern {31}

Atom   0C    basis set group =>   1
Atom   1C    basis set group =>   1
Atom   2C    basis set group =>   1
Atom   3C    basis set group =>   1
Atom   4H    basis set group =>   2
Atom   5H    basis set group =>   2
Atom   6H    basis set group =>   2
Atom   7H    basis set group =>   2
Atom   8H    basis set group =>   2
Atom   9H    basis set group =>   2
Atom  10H    basis set group =>   2
Atom  11H    basis set group =>   2
Atom  12H    basis set group =>   2
Atom  13H    basis set group =>   2
---------------------------------
AUXILIARY/J BASIS SET INFORMATION
---------------------------------
There are 2 groups of distinct atoms

 Group   1 Type C   : 12s5p4d2f1g contracted to 6s4p3d1f1g pattern {711111/2111/211/2/1}
 Group   2 Type H   : 5s2p1d contracted to 3s1p1d pattern {311/2/1}

Atom   0C    basis set group =>   1
Atom   1C    basis set group =>   1
Atom   2C    basis set group =>   1
Atom   3C    basis set group =>   1
Atom   4H    basis set group =>   2
Atom   5H    basis set group =>   2
Atom   6H    basis set group =>   2
Atom   7H    basis set group =>   2
Atom   8H    basis set group =>   2
Atom   9H    basis set group =>   2
Atom  10H    basis set group =>   2
Atom  11H    basis set group =>   2
Atom  12H    basis set group =>   2
Atom  13H    basis set group =>   2


           ************************************************************
           *        Program running with 4 parallel MPI-processes     *
           *              working on a common directory               *
           ************************************************************
------------------------------------------------------------------------------
                           ORCA GTO INTEGRAL CALCULATION
                           -- RI-GTO INTEGRALS CHOSEN --
------------------------------------------------------------------------------
------------------------------------------------------------------------------
                   ___                                                        
                  /   \      - P O W E R E D   B Y -                         
                 /     \                                                     
                 |  |  |   _    _      __       _____    __    __             
                 |  |  |  | |  | |    /  \     |  _  \  |  |  /  |          
                  \  \/   | |  | |   /    \    | | | |  |  | /  /          
                 / \  \   | |__| |  /  /\  \   | |_| |  |  |/  /          
                |  |  |   |  __  | /  /__\  \  |    /   |      \           
                |  |  |   | |  | | |   __   |  |    \   |  |\   \          
                \     /   | |  | | |  |  |  |  | |\  \  |  | \   \       
                 \___/    |_|  |_| |__|  |__|  |_| \__\ |__|  \__/        
                                                                              
                      - O R C A' S   B I G   F R I E N D -                    
                                      &                                       
                       - I N T E G R A L  F E E D E R -                       
                                                                              
 v1 FN, 2020, v2 2021                                                         
------------------------------------------------------------------------------


Reading SHARK input file pbeh-3c.SHARKINP.tmp ... ok
----------------------
SHARK INTEGRAL PACKAGE
----------------------

Number of atoms                             ...     14
Number of basis functions                   ...     80
Number of shells                            ...     48
Maximum angular momentum                    ...      2
Integral batch strategy                     ... SHARK/LIBINT Hybrid
RI-J (if used) integral strategy            ... SPLIT-RIJ (Revised 2003 algorithm where possible)
Printlevel                                  ...      1
Contraction scheme used                     ... SEGMENTED contraction
Coulomb Range Separation                    ... NOT USED
Exchange Range Separation                   ... NOT USED
Finite Nucleus Model                        ... NOT USED
Auxiliary Coulomb fitting basis             ... AVAILABLE
   # of basis functions in Aux-J            ...    306
   # of shells in Aux-J                     ...    110
   Maximum angular momentum in Aux-J        ...      4
Auxiliary J/K fitting basis                 ... NOT available
Auxiliary Correlation fitting basis         ... NOT available
Auxiliary 'external' fitting basis          ... NOT available
Integral threshold                          ...     2.500000e-11
Primitive cut-off                           ...     2.500000e-12
Primitive pair pre-selection threshold      ...     2.500000e-12

Calculating pre-screening integrals         ... done (  0.0 sec) Dimension = 48
Organizing shell pair data                  ... done (  0.5 sec)
Shell pair information
Total number of shell pairs                 ...      1176
Shell pairs after pre-screening             ...      1128
Total number of primitive shell pairs       ...      4360
Primitive shell pairs kept                  ...      3185
          la=0 lb=0:    624 shell pairs
          la=1 lb=0:    286 shell pairs
          la=1 lb=1:     36 shell pairs
          la=2 lb=0:    140 shell pairs
          la=2 lb=1:     32 shell pairs
          la=2 lb=2:     10 shell pairs

Calculating one electron integrals          ... done (  0.0 sec)
Calculating RI/J V-Matrix + Cholesky decomp.... done (  0.9 sec)
Calculating Nuclear repulsion               ... done (  0.1 sec) ENN=    128.282179692674 Eh

SHARK setup successfully completed in   3.3 seconds

Maximum memory used throughout the entire GTOINT-calculation: 9.8 MB


           ************************************************************
           *        Program running with 4 parallel MPI-processes     *
           *              working on a common directory               *
           ************************************************************
-------------------------------------------------------------------------------
                                 ORCA SCF
-------------------------------------------------------------------------------

------------
SCF SETTINGS
------------
Hamiltonian:
 Density Functional     Method          .... DFT(GTOs)
 Exchange Functional    Exchange        .... PBE
   PBE kappa parameter   XKappa         ....  1.024500
   PBE mue parameter    XMuePBE         ....  0.123457
 Correlation Functional Correlation     .... PBE
   PBE beta parameter  CBetaPBE         ....  0.030000
 LDA part of GGA corr.  LDAOpt          .... PW91-LDA
 Gradients option       PostSCFGGA      .... off
 Hybrid DFT is turned on
   Fraction HF Exchange ScalHFX         ....  0.420000
   Scaling of DF-GGA-X  ScalDFX         ....  0.580000
   Scaling of DF-GGA-C  ScalDFC         ....  1.000000
   Scaling of DF-LDA-C  ScalLDAC        ....  1.000000
   Perturbative correction              ....  0.000000
   Density functional embedding theory  .... OFF
 RI-approximation to the Coulomb term is turned on
   Number of AuxJ basis functions       .... 306
   RIJ-ON(X) (HFX calculated with O(N)) .... on
   Number of AuxJ basis functions       .... 306
   RIJ-COSX (HFX calculated with COS-X)).... on


General Settings:
 Integral files         IntName         .... pbeh-3c
 Hartree-Fock type      HFTyp           .... UHF
 Total Charge           Charge          ....    1
 Multiplicity           Mult            ....    2
 Number of Electrons    NEL             ....   33
 Basis Dimension        Dim             ....   80
 Nuclear Repulsion      ENuc            ....    128.2821796927 Eh

Convergence Acceleration:
 DIIS                   CNVDIIS         .... on
   Start iteration      DIISMaxIt       ....    12
   Startup error        DIISStart       ....  0.200000
   # of expansion vecs  DIISMaxEq       ....     5
   Bias factor          DIISBfac        ....   1.050
   Max. coefficient     DIISMaxC        ....  10.000
 Trust-Rad. Augm. Hess. CNVTRAH         .... auto
   Auto Start mean grad. ratio tolernc. ....  1.125000
   Auto Start start iteration           ....    20
   Auto Start num. interpolation iter.  ....    10
   Max. Number of Micro iterations      ....    16
   Max. Number of Macro iterations      .... Maxiter - #DIIS iter
   Number of Davidson start vectors     ....     2
   Converg. threshold I  (grad. norm)   ....   1.000e-05
   Converg. threshold II (energy diff.) ....   1.000e-08
   Grad. Scal. Fac. for Micro threshold ....   0.100
   Minimum threshold for Micro iter.    ....   0.010
   NR start threshold (gradient norm)   ....   0.001
   Initial trust radius                 ....   0.400
   Minimum AH scaling param. (alpha)    ....   1.000
   Maximum AH scaling param. (alpha)    .... 1000.000
   Orbital update algorithm             .... Taylor
   White noise on init. David. guess    .... on
   Maximum white noise                  ....   0.010
   Quad. conv. algorithm                .... NR
   COSX micro iterations for RIJONX calc.... off
 SOSCF                  CNVSOSCF        .... off
 Level Shifting         CNVShift        .... on
   Level shift para.    LevelShift      ....    0.2500
   Turn off err/grad.   ShiftErr        ....    0.0010
 Zerner damping         CNVZerner       .... off
 Static damping         CNVDamp         .... on
   Fraction old density DampFac         ....    0.7000
   Max. Damping (<1)    DampMax         ....    0.9800
   Min. Damping (>=0)   DampMin         ....    0.0000
   Turn off err/grad.   DampErr         ....    0.1000
 Fernandez-Rico         CNVRico         .... off

SCF Procedure:
 Maximum # iterations   MaxIter         ....   125
 SCF integral mode      SCFMode         .... Direct
   Integral package                     .... SHARK and LIBINT hybrid scheme
 Reset frequency        DirectResetFreq ....    20
 Integral Threshold     Thresh          ....  2.500e-11 Eh
 Primitive CutOff       TCut            ....  2.500e-12 Eh

Convergence Tolerance:
 Convergence Check Mode ConvCheckMode   .... Total+1el-Energy
 Convergence forced     ConvForced      .... 0
 Energy Change          TolE            ....  1.000e-08 Eh
 1-El. energy change                    ....  1.000e-05 Eh
 DIIS Error             TolErr          ....  5.000e-07


Diagonalization of the overlap matrix:
Smallest eigenvalue                        ... 6.843e-03
Time for diagonalization                   ...    0.001 sec
Threshold for overlap eigenvalues          ... 1.000e-08
Number of eigenvalues below threshold      ... 0
Time for construction of square roots      ...    0.376 sec
Total time needed                          ...    0.474 sec

--------------------------------
INITIAL GUESS: MINIMAL BASIS EHT
--------------------------------
The minimal basis has 30 functions
EHT matrix was diagonalized
Basis set overlap was calculated now projecting the orbitals
Using GuessMode=FMatrix for the initial guess
C*T matrix was formed
Effective Fockian was calculated
Effective Fockian was diagonalized
Initial density was built
                      ------------------
                      INITIAL GUESS DONE
                      ------------------
-------------------
DFT GRID GENERATION
-------------------

General Integration Accuracy     IntAcc      ... 4.959
Radial Grid Type                 RadialGrid  ... OptM3 with GC (2021)
Angular Grid (max. ang.)         AngularGrid ... 6 (Lebedev-590)
Angular grid pruning method      GridPruning ... 4 (adaptive)
Weight generation scheme         WeightScheme... Becke
Basis function cutoff            BFCut       ... 1.0000e-11
Integration weight cutoff        WCut        ... 1.0000e-14
Angular grids for H and He will be reduced by one unit
Partially contracted basis set               ... off
Rotationally invariant grid construction     ... off

Total number of grid points                  ...   144796
Total number of batches                      ...     2270
Average number of points per batch           ...       63
Average number of grid points per atom       ...    10343
Time for grid setup =    3.160 sec

--------------------
COSX GRID GENERATION
--------------------

GRIDX 1
-------
General Integration Accuracy     IntAcc      ... 4.020
Radial Grid Type                 RadialGrid  ... OptM3 with GC (2021)
Angular Grid (max. ang.)         AngularGrid ... 2 (Lebedev-110)
Angular grid pruning method      GridPruning ... 4 (adaptive)
Weight generation scheme         WeightScheme... Becke
Basis function cutoff            BFCut       ... 1.0000e-11
Integration weight cutoff        WCut        ... 1.0000e-14
Angular grids for H and He will be reduced by one unit
Partially contracted basis set               ... on
Rotationally invariant grid construction     ... off

Total number of grid points                  ...    14926
Total number of batches                      ...      240
Average number of points per batch           ...       62
Average number of grid points per atom       ...     1066
UseSFitting                                  ... on

GRIDX 2
-------
General Integration Accuracy     IntAcc      ... 4.338
Radial Grid Type                 RadialGrid  ... OptM3 with GC (2021)
Angular Grid (max. ang.)         AngularGrid ... 3 (Lebedev-194)
Angular grid pruning method      GridPruning ... 4 (adaptive)
Weight generation scheme         WeightScheme... Becke
Basis function cutoff            BFCut       ... 1.0000e-11
Integration weight cutoff        WCut        ... 1.0000e-14
Angular grids for H and He will be reduced by one unit
Partially contracted basis set               ... on
Rotationally invariant grid construction     ... off

Total number of grid points                  ...    32588
Total number of batches                      ...      516
Average number of points per batch           ...       63
Average number of grid points per atom       ...     2328
UseSFitting                                  ... on

GRIDX 3
-------
General Integration Accuracy     IntAcc      ... 4.871
Radial Grid Type                 RadialGrid  ... OptM3 with GC (2021)
Angular Grid (max. ang.)         AngularGrid ... 4 (Lebedev-302)
Angular grid pruning method      GridPruning ... 4 (adaptive)
Weight generation scheme         WeightScheme... Becke
Basis function cutoff            BFCut       ... 1.0000e-11
Integration weight cutoff        WCut        ... 1.0000e-14
Angular grids for H and He will be reduced by one unit
Partially contracted basis set               ... on
Rotationally invariant grid construction     ... off

Total number of grid points                  ...    66094
Total number of batches                      ...     1042
Average number of points per batch           ...       63
Average number of grid points per atom       ...     4721
UseSFitting                                  ... on

Time for X-Grid setup             =    5.258 sec

--------------
SCF ITERATIONS
--------------
ITER       Energy         Delta-E        Max-DP      RMS-DP      [F,P]     Damp
               ***  Starting incremental Fock matrix formation  ***
  0   -157.3840992718   0.000000000000 0.02106810  0.00151718  0.2052988 0.7000
  1   -157.4950092297  -0.110909957925 0.01467901  0.00119283  0.1463859 0.7000
                               ***Turning on DIIS***
  2   -157.5675272147  -0.072517985043 0.01078366  0.00082162  0.1038884 0.7000
  3   -157.6169401169  -0.049412902189 0.03522148  0.00188999  0.0735747 0.0000
  4   -157.7339367000  -0.116996583041 0.00338687  0.00017512  0.0029560 0.0000
  5   -157.7342028583  -0.000266158303 0.00128256  0.00006654  0.0018520 0.0000
  6   -157.7342776676  -0.000074809325 0.00081828  0.00004574  0.0012016 0.0000
  7   -157.7343132677  -0.000035600071 0.00123159  0.00006110  0.0008193 0.0000
               *** Restarting incremental Fock matrix formation ***
                                   *** Resetting DIIS ***
  8   -157.7343388005  -0.000025532844 0.00031099  0.00001803  0.0003041 0.0000
  9   -157.7343417050  -0.000002904522 0.00017792  0.00000818  0.0002044 0.0000
 10   -157.7343426765  -0.000000971453 0.00025098  0.00001131  0.0001271 0.0000
 11   -157.7343433131  -0.000000636661 0.00004080  0.00000175  0.0000235 0.0000
 12   -157.7343433256  -0.000000012439 0.00001136  0.00000049  0.0000121 0.0000
                            ***DIIS convergence achieved***

               *****************************************************
               *                     SUCCESS                       *
               *           SCF CONVERGED AFTER  13 CYCLES          *
               *****************************************************

Old exchange energy                            =    -10.048631008 Eh
New exchange energy                            =    -10.048640260 Eh
Exchange energy change after final integration =     -0.000009253 Eh
Total energy after final integration           =   -157.734352582 Eh
Final COS-X integration done in                =     1.548 sec

----------------
TOTAL SCF ENERGY
----------------

Total Energy       :         -157.73435258 Eh           -4292.16994 eV

Components:
Nuclear Repulsion  :          128.28217969 Eh            3490.73558 eV
Electronic Energy  :         -286.01653227 Eh           -7782.90552 eV
One Electron Energy:         -456.83411124 Eh          -12431.08815 eV
Two Electron Energy:          170.81757897 Eh            4648.18263 eV
Max COSX asymmetry :            0.00000014 Eh               0.00000 eV

Virial components:
Potential Energy   :         -314.19106818 Eh           -8549.57362 eV
Kinetic Energy     :          156.45671560 Eh            4257.40367 eV
Virial Ratio       :            2.00816607


DFT components:
N(Alpha)           :       16.999999068208 electrons
N(Beta)            :       15.999999471131 electrons
N(Total)           :       32.999998539340 electrons
E(X)               :      -13.315993130336 Eh       
E(C)               :       -1.368396619430 Eh       
E(XC)              :      -14.684389749766 Eh       
DFET-embed. en.    :        0.000000000000 Eh       

---------------
SCF CONVERGENCE
---------------

  Last Energy change         ...   -3.6505e-09  Tolerance :   1.0000e-08
  Last MAX-Density change    ...    0.0000e+00  Tolerance :   1.0000e-07
  Last RMS-Density change    ...    0.0000e+00  Tolerance :   5.0000e-09
  Last DIIS Error            ...    8.1510e-07  Tolerance :   5.0000e-07

             **** THE GBW FILE WAS UPDATED (pbeh-3c.gbw) ****
             **** DENSITY pbeh-3c.scfp WAS UPDATED ****
             **** ENERGY FILE WAS UPDATED (pbeh-3c.en.tmp) ****
----------------------
UHF SPIN CONTAMINATION
----------------------

Warning: in a DFT calculation there is little theoretical justification to 
         calculate <S**2> as in Hartree-Fock theory. We will do it anyways
         but you should keep in mind that the values have only limited relevance

Expectation value of <S**2>     :     0.753404
Ideal value S*(S+1) for S=0.5   :     0.750000
Deviation                       :     0.003404

             **** THE GBW FILE WAS UPDATED (pbeh-3c.gbw) ****
             **** DENSITY pbeh-3c.scfp WAS UPDATED ****
----------------
ORBITAL ENERGIES
----------------
                 SPIN UP ORBITALS
  NO   OCC          E(Eh)            E(eV) 
   0   1.0000     -10.720759      -291.7267 
   1   1.0000     -10.720693      -291.7249 
   2   1.0000     -10.640640      -289.5465 
   3   1.0000     -10.640618      -289.5459 
   4   1.0000      -1.130196       -30.7542 
   5   1.0000      -1.062785       -28.9198 
   6   1.0000      -0.929860       -25.3028 
   7   1.0000      -0.894751       -24.3474 
   8   1.0000      -0.776270       -21.1234 
   9   1.0000      -0.717712       -19.5299 
  10   1.0000      -0.711333       -19.3564 
  11   1.0000      -0.704919       -19.1818 
  12   1.0000      -0.660348       -17.9690 
  13   1.0000      -0.655388       -17.8340 
  14   1.0000      -0.627230       -17.0678 
  15   1.0000      -0.624878       -17.0038 
  16   1.0000      -0.558231       -15.1902 
  17   0.0000      -0.146343        -3.9822 
  18   0.0000      -0.077060        -2.0969 
  19   0.0000      -0.020955        -0.5702 
  20   0.0000      -0.016129        -0.4389 
  21   0.0000      -0.015251        -0.4150 
  22   0.0000       0.007304         0.1987 
  23   0.0000       0.007371         0.2006 
  24   0.0000       0.024941         0.6787 
  25   0.0000       0.033733         0.9179 
  26   0.0000       0.048894         1.3305 
  27   0.0000       0.078044         2.1237 
  28   0.0000       0.084108         2.2887 
  29   0.0000       0.091672         2.4945 
  30   0.0000       0.259612         7.0644 
  31   0.0000       0.263482         7.1697 
  32   0.0000       0.318068         8.6551 
  33   0.0000       0.328152         8.9295 
  34   0.0000       0.340416         9.2632 
  35   0.0000       0.349493         9.5102 
  36   0.0000       0.388119        10.5613 
  37   0.0000       0.407953        11.1010 
  38   0.0000       0.462640        12.5891 
  39   0.0000       0.539737        14.6870 
  40   0.0000       0.543327        14.7847 
  41   0.0000       0.564242        15.3538 
  42   0.0000       0.709950        19.3187 
  43   0.0000       0.747592        20.3430 
  44   0.0000       0.790171        21.5017 
  45   0.0000       0.805014        21.9055 
  46   0.0000       0.820540        22.3280 
  47   0.0000       0.834997        22.7214 
  48   0.0000       0.849243        23.1091 
  49   0.0000       0.873198        23.7609 
  50   0.0000       0.885449        24.0943 
  51   0.0000       0.888701        24.1828 
  52   0.0000       0.897085        24.4109 
  53   0.0000       1.085760        29.5450 
  54   0.0000       1.119020        30.4501 
  55   0.0000       1.230125        33.4734 
  56   0.0000       1.323964        36.0269 
  57   0.0000       1.352326        36.7987 
  58   0.0000       1.382099        37.6088 
  59   0.0000       1.633618        44.4530 
  60   0.0000       1.644379        44.7458 
  61   0.0000       1.656732        45.0820 
  62   0.0000       1.697644        46.1952 
  63   0.0000       1.811540        49.2945 
  64   0.0000       1.823001        49.6064 
  65   0.0000       1.837088        49.9897 
  66   0.0000       2.025771        55.1240 
  67   0.0000       2.041950        55.5643 
  68   0.0000       2.047575        55.7174 
  69   0.0000       2.119633        57.6781 
  70   0.0000       2.202219        59.9254 
  71   0.0000       2.205741        60.0213 
  72   0.0000       2.290600        62.3304 
  73   0.0000       2.331455        63.4421 
  74   0.0000       2.407223        65.5039 
  75   0.0000       2.475819        67.3705 
  76   0.0000      13.329675       362.7189 
  77   0.0000      13.461905       366.3171 
  78   0.0000      13.768419       374.6577 
  79   0.0000      13.774127       374.8130 

                 SPIN DOWN ORBITALS
  NO   OCC          E(Eh)            E(eV) 
   0   1.0000     -10.714043      -291.5439 
   1   1.0000     -10.714010      -291.5430 
   2   1.0000     -10.640010      -289.5294 
   3   1.0000     -10.639986      -289.5287 
   4   1.0000      -1.106091       -30.0983 
   5   1.0000      -1.050359       -28.5817 
   6   1.0000      -0.908638       -24.7253 
   7   1.0000      -0.877326       -23.8733 
   8   1.0000      -0.769675       -20.9439 
   9   1.0000      -0.712939       -19.4001 
  10   1.0000      -0.692558       -18.8455 
  11   1.0000      -0.680510       -18.5176 
  12   1.0000      -0.648842       -17.6559 
  13   1.0000      -0.637084       -17.3359 
  14   1.0000      -0.623954       -16.9786 
  15   1.0000      -0.621094       -16.9008 
  16   0.0000      -0.383612       -10.4386 
  17   0.0000      -0.093087        -2.5330 
  18   0.0000      -0.069679        -1.8961 
  19   0.0000      -0.012964        -0.3528 
  20   0.0000      -0.011979        -0.3260 
  21   0.0000      -0.008735        -0.2377 
  22   0.0000       0.010154         0.2763 
  23   0.0000       0.013689         0.3725 
  24   0.0000       0.030649         0.8340 
  25   0.0000       0.039944         1.0869 
  26   0.0000       0.050436         1.3724 
  27   0.0000       0.083624         2.2755 
  28   0.0000       0.092130         2.5070 
  29   0.0000       0.095585         2.6010 
  30   0.0000       0.266993         7.2652 
  31   0.0000       0.269323         7.3286 
  32   0.0000       0.322154         8.7663 
  33   0.0000       0.329701         8.9716 
  34   0.0000       0.364888         9.9291 
  35   0.0000       0.379226        10.3193 
  36   0.0000       0.391891        10.6639 
  37   0.0000       0.412205        11.2167 
  38   0.0000       0.473681        12.8895 
  39   0.0000       0.548093        14.9144 
  40   0.0000       0.549000        14.9390 
  41   0.0000       0.573125        15.5955 
  42   0.0000       0.720458        19.6047 
  43   0.0000       0.749964        20.4076 
  44   0.0000       0.800577        21.7848 
  45   0.0000       0.813711        22.1422 
  46   0.0000       0.832722        22.6595 
  47   0.0000       0.837184        22.7809 
  48   0.0000       0.856799        23.3147 
  49   0.0000       0.878595        23.9078 
  50   0.0000       0.887864        24.1600 
  51   0.0000       0.898604        24.4522 
  52   0.0000       0.900548        24.5052 
  53   0.0000       1.090805        29.6823 
  54   0.0000       1.132485        30.8165 
  55   0.0000       1.246431        33.9171 
  56   0.0000       1.345269        36.6066 
  57   0.0000       1.366115        37.1739 
  58   0.0000       1.387888        37.7663 
  59   0.0000       1.644806        44.7574 
  60   0.0000       1.672693        45.5163 
  61   0.0000       1.676742        45.6265 
  62   0.0000       1.708224        46.4831 
  63   0.0000       1.815518        49.4027 
  64   0.0000       1.840420        50.0804 
  65   0.0000       1.842464        50.1360 
  66   0.0000       2.031375        55.2765 
  67   0.0000       2.047743        55.7219 
  68   0.0000       2.060674        56.0738 
  69   0.0000       2.132027        58.0154 
  70   0.0000       2.213479        60.2318 
  71   0.0000       2.228298        60.6351 
  72   0.0000       2.293592        62.4118 
  73   0.0000       2.333886        63.5083 
  74   0.0000       2.414640        65.7057 
  75   0.0000       2.488594        67.7181 
  76   0.0000      13.335427       362.8754 
  77   0.0000      13.467426       366.4673 
  78   0.0000      13.773381       374.7927 
  79   0.0000      13.778892       374.9427 

                    ********************************
                    * MULLIKEN POPULATION ANALYSIS *
                    ********************************

--------------------------------------------
MULLIKEN ATOMIC CHARGES AND SPIN POPULATIONS
--------------------------------------------
   0 C :   -0.673728    0.015473
   1 C :   -0.405487    0.402140
   2 C :   -0.405487    0.402140
   3 C :   -0.673728    0.015473
   4 H :    0.332400    0.076367
   5 H :    0.293038    0.005903
   6 H :    0.293038    0.005903
   7 H :    0.330370   -0.002893
   8 H :    0.330370   -0.002893
   9 H :    0.330370   -0.002893
  10 H :    0.330370   -0.002893
  11 H :    0.293038    0.005903
  12 H :    0.332400    0.076367
  13 H :    0.293038    0.005903
Sum of atomic charges         :    1.0000000
Sum of atomic spin populations:    1.0000000

-----------------------------------------------------
MULLIKEN REDUCED ORBITAL CHARGES AND SPIN POPULATIONS
-----------------------------------------------------
CHARGE
  0 C s       :     3.418638  s :     3.418638
      pz      :     1.192031  p :     3.219424
      px      :     0.879807
      py      :     1.147586
      dz2     :     0.008811  d :     0.035667
      dxz     :     0.007535
      dyz     :     0.005216
      dx2y2   :     0.010489
      dxy     :     0.003616
  1 C s       :     3.451681  s :     3.451681
      pz      :     1.244257  p :     2.914649
      px      :     0.992786
      py      :     0.677606
      dz2     :     0.008152  d :     0.039157
      dxz     :     0.012399
      dyz     :     0.004727
      dx2y2   :     0.006498
      dxy     :     0.007380
  2 C s       :     3.451681  s :     3.451681
      pz      :     1.244257  p :     2.914649
      px      :     0.992786
      py      :     0.677606
      dz2     :     0.008152  d :     0.039157
      dxz     :     0.012399
      dyz     :     0.004727
      dx2y2   :     0.006498
      dxy     :     0.007380
  3 C s       :     3.418638  s :     3.418638
      pz      :     1.192031  p :     3.219424
      px      :     0.879807
      py      :     1.147586
      dz2     :     0.008811  d :     0.035667
      dxz     :     0.007535
      dyz     :     0.005216
      dx2y2   :     0.010489
      dxy     :     0.003616
  4 H s       :     0.667600  s :     0.667600
  5 H s       :     0.706962  s :     0.706962
  6 H s       :     0.706962  s :     0.706962
  7 H s       :     0.669630  s :     0.669630
  8 H s       :     0.669630  s :     0.669630
  9 H s       :     0.669630  s :     0.669630
 10 H s       :     0.669630  s :     0.669630
 11 H s       :     0.706962  s :     0.706962
 12 H s       :     0.667600  s :     0.667600
 13 H s       :     0.706962  s :     0.706962

SPIN
  0 C s       :    -0.006151  s :    -0.006151
      pz      :    -0.002168  p :     0.017620
      px      :    -0.000498
      py      :     0.020286
      dz2     :     0.000495  d :     0.004003
      dxz     :    -0.000021
      dyz     :     0.000108
      dx2y2   :     0.000610
      dxy     :     0.002810
  1 C s       :     0.025445  s :     0.025445
      pz      :     0.009643  p :     0.372857
      px      :     0.033887
      py      :     0.329326
      dz2     :     0.000599  d :     0.003837
      dxz     :    -0.000022
      dyz     :     0.000147
      dx2y2   :     0.001155
      dxy     :     0.001958
  2 C s       :     0.025445  s :     0.025445
      pz      :     0.009643  p :     0.372857
      px      :     0.033887
      py      :     0.329326
      dz2     :     0.000599  d :     0.003837
      dxz     :    -0.000022
      dyz     :     0.000147
      dx2y2   :     0.001155
      dxy     :     0.001958
  3 C s       :    -0.006151  s :    -0.006151
      pz      :    -0.002168  p :     0.017621
      px      :    -0.000498
      py      :     0.020286
      dz2     :     0.000495  d :     0.004003
      dxz     :    -0.000021
      dyz     :     0.000108
      dx2y2   :     0.000610
      dxy     :     0.002810
  4 H s       :     0.076367  s :     0.076367
  5 H s       :     0.005903  s :     0.005903
  6 H s       :     0.005903  s :     0.005903
  7 H s       :    -0.002893  s :    -0.002893
  8 H s       :    -0.002893  s :    -0.002893
  9 H s       :    -0.002893  s :    -0.002893
 10 H s       :    -0.002893  s :    -0.002893
 11 H s       :     0.005903  s :     0.005903
 12 H s       :     0.076367  s :     0.076367
 13 H s       :     0.005903  s :     0.005903


                     *******************************
                     * LOEWDIN POPULATION ANALYSIS *
                     *******************************

-------------------------------------------
LOEWDIN ATOMIC CHARGES AND SPIN POPULATIONS
-------------------------------------------
   0 C :   -0.350293    0.039874
   1 C :   -0.078901    0.375399
   2 C :   -0.078901    0.375399
   3 C :   -0.350293    0.039874
   4 H :    0.217803    0.068092
   5 H :    0.172303    0.006188
   6 H :    0.172303    0.006188
   7 H :    0.183393    0.002130
   8 H :    0.183393    0.002130
   9 H :    0.183393    0.002130
  10 H :    0.183393    0.002130
  11 H :    0.172303    0.006188
  12 H :    0.217803    0.068092
  13 H :    0.172303    0.006188

----------------------------------------------------
LOEWDIN REDUCED ORBITAL CHARGES AND SPIN POPULATIONS
----------------------------------------------------
CHARGE
  0 C s       :     2.954271  s :     2.954271
      pz      :     1.165588  p :     3.326901
      px      :     1.042623
      py      :     1.118690
      dz2     :     0.015295  d :     0.069121
      dxz     :     0.015920
      dyz     :     0.008050
      dx2y2   :     0.022045
      dxy     :     0.007812
  1 C s       :     3.004736  s :     3.004736
      pz      :     1.170530  p :     3.002262
      px      :     1.093203
      py      :     0.738530
      dz2     :     0.013991  d :     0.071902
      dxz     :     0.022528
      dyz     :     0.007492
      dx2y2   :     0.013998
      dxy     :     0.013893
  2 C s       :     3.004736  s :     3.004736
      pz      :     1.170530  p :     3.002262
      px      :     1.093202
      py      :     0.738530
      dz2     :     0.013991  d :     0.071902
      dxz     :     0.022528
      dyz     :     0.007492
      dx2y2   :     0.013998
      dxy     :     0.013893
  3 C s       :     2.954271  s :     2.954271
      pz      :     1.165588  p :     3.326901
      px      :     1.042623
      py      :     1.118690
      dz2     :     0.015295  d :     0.069121
      dxz     :     0.015920
      dyz     :     0.008050
      dx2y2   :     0.022045
      dxy     :     0.007812
  4 H s       :     0.782197  s :     0.782197
  5 H s       :     0.827697  s :     0.827697
  6 H s       :     0.827697  s :     0.827697
  7 H s       :     0.816607  s :     0.816607
  8 H s       :     0.816607  s :     0.816607
  9 H s       :     0.816607  s :     0.816607
 10 H s       :     0.816607  s :     0.816607
 11 H s       :     0.827697  s :     0.827697
 12 H s       :     0.782197  s :     0.782197
 13 H s       :     0.827697  s :     0.827697

SPIN
  0 C s       :    -0.001173  s :    -0.001173
      pz      :    -0.001057  p :     0.032673
      px      :     0.005435
      py      :     0.028295
      dz2     :     0.000949  d :     0.008373
      dxz     :     0.000054
      dyz     :     0.000111
      dx2y2   :     0.001073
      dxy     :     0.006186
  1 C s       :     0.010528  s :     0.010528
      pz      :     0.005583  p :     0.358454
      px      :     0.031920
      py      :     0.320950
      dz2     :     0.000823  d :     0.006418
      dxz     :    -0.000137
      dyz     :     0.000068
      dx2y2   :     0.001817
      dxy     :     0.003847
  2 C s       :     0.010528  s :     0.010528
      pz      :     0.005583  p :     0.358454
      px      :     0.031920
      py      :     0.320950
      dz2     :     0.000823  d :     0.006418
      dxz     :    -0.000137
      dyz     :     0.000068
      dx2y2   :     0.001817
      dxy     :     0.003847
  3 C s       :    -0.001173  s :    -0.001173
      pz      :    -0.001057  p :     0.032673
      px      :     0.005435
      py      :     0.028295
      dz2     :     0.000949  d :     0.008373
      dxz     :     0.000054
      dyz     :     0.000111
      dx2y2   :     0.001073
      dxy     :     0.006186
  4 H s       :     0.068092  s :     0.068092
  5 H s       :     0.006188  s :     0.006188
  6 H s       :     0.006188  s :     0.006188
  7 H s       :     0.002130  s :     0.002130
  8 H s       :     0.002130  s :     0.002130
  9 H s       :     0.002130  s :     0.002130
 10 H s       :     0.002130  s :     0.002130
 11 H s       :     0.006188  s :     0.006188
 12 H s       :     0.068092  s :     0.068092
 13 H s       :     0.006188  s :     0.006188


                      *****************************
                      * MAYER POPULATION ANALYSIS *
                      *****************************

  NA   - Mulliken gross atomic population
  ZA   - Total nuclear charge
  QA   - Mulliken gross atomic charge
  VA   - Mayer's total valence
  BVA  - Mayer's bonded valence
  FA   - Mayer's free valence

  ATOM       NA         ZA         QA         VA         BVA        FA
  0 C      6.6737     6.0000    -0.6737     3.6300     3.6268     0.0032
  1 C      6.4055     6.0000    -0.4055     3.4627     3.3272     0.1355
  2 C      6.4055     6.0000    -0.4055     3.4627     3.3272     0.1355
  3 C      6.6737     6.0000    -0.6737     3.6300     3.6268     0.0032
  4 H      0.6676     1.0000     0.3324     0.8586     0.8528     0.0058
  5 H      0.7070     1.0000     0.2930     0.8842     0.8841     0.0000
  6 H      0.7070     1.0000     0.2930     0.8842     0.8841     0.0000
  7 H      0.6696     1.0000     0.3304     0.8527     0.8526     0.0000
  8 H      0.6696     1.0000     0.3304     0.8527     0.8526     0.0000
  9 H      0.6696     1.0000     0.3304     0.8527     0.8526     0.0000
 10 H      0.6696     1.0000     0.3304     0.8527     0.8526     0.0000
 11 H      0.7070     1.0000     0.2930     0.8842     0.8841     0.0000
 12 H      0.6676     1.0000     0.3324     0.8586     0.8528     0.0058
 13 H      0.7070     1.0000     0.2930     0.8842     0.8841     0.0000

  Mayer bond orders larger than 0.100000
B(  0-C ,  1-C ) :   1.0481 B(  0-C ,  4-H ) :   0.8075 B(  0-C ,  5-H ) :   0.8884 
B(  0-C ,  6-H ) :   0.8884 B(  1-C ,  2-C ) :   0.5311 B(  1-C ,  7-H ) :   0.8568 
B(  1-C ,  8-H ) :   0.8568 B(  2-C ,  3-C ) :   1.0481 B(  2-C ,  9-H ) :   0.8568 
B(  2-C , 10-H ) :   0.8568 B(  3-C , 11-H ) :   0.8884 B(  3-C , 12-H ) :   0.8075 
B(  3-C , 13-H ) :   0.8884 

-------
TIMINGS
-------

Total SCF time: 0 days 0 hours 2 min 19 sec 

Total time                  ....     139.172 sec
Sum of individual times     ....     125.023 sec  ( 89.8%)

Fock matrix formation       ....     101.462 sec  ( 72.9%)
  Split-RI-J                ....      11.219 sec  ( 11.1% of F)
  Chain of spheres X        ....      17.291 sec  ( 17.0% of F)
  XC integration            ....      30.599 sec  ( 30.2% of F)
    Basis function eval.    ....       2.119 sec  (  6.9% of XC)
    Density eval.           ....       2.035 sec  (  6.6% of XC)
    XC-Functional eval.     ....       1.329 sec  (  4.3% of XC)
    XC-Potential eval.      ....       1.192 sec  (  3.9% of XC)
Diagonalization             ....       3.033 sec  (  2.2%)
Density matrix formation    ....       0.067 sec  (  0.0%)
Population analysis         ....       2.320 sec  (  1.7%)
Initial guess               ....       0.160 sec  (  0.1%)
Orbital Transformation      ....       0.000 sec  (  0.0%)
Orbital Orthonormalization  ....       0.000 sec  (  0.0%)
DIIS solution               ....       9.564 sec  (  6.9%)
Grid generation             ....       8.418 sec  (  6.0%)

Maximum memory used throughout the entire SCF-calculation: 50.2 MB


-------------------------------------------------------------------------------
                          DFT DISPERSION CORRECTION                            
                                                                               
                              DFTD3 V3.1  Rev 1                                
                          USING Becke-Johnson damping                          
-------------------------------------------------------------------------------
The PBEh-3c composite method is recognized
Using three-body term ABC
Active option DFTDOPT                   ...         4   

molecular C6(AA) [au] = 1208.119750 


            DFT-D V3
 parameters
 s6 scaling factor         :     1.0000 
 a1 scaling factor         :     0.4860 
 s8 scaling factor         :     0.0000 
 a2 scaling factor         :     4.5000 
 Damping factor alpha9(ATM):    16.0000 
 ad hoc parameters k1-k3   :    16.0000     1.3333    -4.0000 

 Edisp/kcal,au: -3.191140366517  -0.005085405333 
 E6   /kcal   :  -3.199106225 
 E8   /kcal   :  -0.000000000 
 E6(ABC)      :   0.007965859 
 % E8         :   0.000000000 
 % E6(ABC)    :  -0.249624203 

-------------------------   ----------------
Dispersion correction           -0.005085405
-------------------------   ----------------

------------------   -----------------
gCP correction             0.016458565
------------------   -----------------

-------------------------   --------------------
FINAL SINGLE POINT ENERGY      -157.722979422373
-------------------------   --------------------


                            ***************************************
                            *     ORCA property calculations      *
                            ***************************************

                                    ---------------------
                                    Active property flags
                                    ---------------------
   (+) Dipole Moment


------------------------------------------------------------------------------
                       ORCA ELECTRIC PROPERTIES CALCULATION
------------------------------------------------------------------------------

Dipole Moment Calculation                       ... on
Quadrupole Moment Calculation                   ... off
Polarizability Calculation                      ... off
GBWName                                         ... pbeh-3c.gbw
Electron density                                ... pbeh-3c.scfp
The origin for moment calculation is the CENTER OF MASS  = ( 0.000000,  0.000000  0.000000)

-------------
DIPOLE MOMENT
-------------
                                X             Y             Z
Electronic contribution:      0.00000      -0.00000       0.00000
Nuclear contribution   :      0.00000       0.00000       0.00000
                        -----------------------------------------
Total Dipole Moment    :      0.00000      -0.00000       0.00000
                        -----------------------------------------
Magnitude (a.u.)       :      0.00000
Magnitude (Debye)      :      0.00000



--------------------
Rotational spectrum 
--------------------
 
Rotational constants in cm-1:     0.684664     0.117846     0.109217 
Rotational constants in MHz : 20525.723926  3532.925452  3274.245827 

 Dipole components along the rotational axes: 
x,y,z [a.u.] :    -0.000000    -0.000000     0.000000 
x,y,z [Debye]:    -0.000000    -0.000000     0.000000 

 

Timings for individual modules:

Sum of individual times         ...      145.265 sec (=   2.421 min)
GTO integral calculation        ...        4.631 sec (=   0.077 min)   3.2 %
SCF iterations                  ...      140.634 sec (=   2.344 min)  96.8 %
                             ****ORCA TERMINATED NORMALLY****
TOTAL RUN TIME: 0 days 0 hours 2 minutes 45 seconds 422 msec
