
                                 *****************
                                 * O   R   C   A *
                                 *****************

                                            #,                                       
                                            ###                                      
                                            ####                                     
                                            #####                                    
                                            ######                                   
                                           ########,                                 
                                     ,,################,,,,,                         
                               ,,#################################,,                 
                          ,,##########################################,,             
                       ,#########################################, ''#####,          
                    ,#############################################,,   '####,        
                  ,##################################################,,,,####,       
                ,###########''''           ''''###############################       
              ,#####''   ,,,,##########,,,,          '''####'''          '####       
            ,##' ,,,,###########################,,,                        '##       
           ' ,,###''''                  '''############,,,                           
         ,,##''                                '''############,,,,        ,,,,,,###''
      ,#''                                            '''#######################'''  
     '                                                          ''''####''''         
             ,#######,   #######,   ,#######,      ##                                
            ,#'     '#,  ##    ##  ,#'     '#,    #''#        ######   ,####,        
            ##       ##  ##   ,#'  ##            #'  '#       #        #'  '#        
            ##       ##  #######   ##           ,######,      #####,   #    #        
            '#,     ,#'  ##    ##  '#,     ,#' ,#      #,         ##   #,  ,#        
             '#######'   ##     ##  '#######'  #'      '#     #####' # '####'        



                  #######################################################
                  #                        -***-                        #
                  #          Department of theory and spectroscopy      #
                  #    Directorship and core code : Frank Neese         #
                  #        Max Planck Institute fuer Kohlenforschung    #
                  #                Kaiser Wilhelm Platz 1               #
                  #                 D-45470 Muelheim/Ruhr               #
                  #                      Germany                        #
                  #                                                     #
                  #                  All rights reserved                #
                  #                        -***-                        #
                  #######################################################


                         Program Version 5.0.3 -  RELEASE  -


 With contributions from (in alphabetic order):
   Daniel Aravena         : Magnetic Suceptibility
   Michael Atanasov       : Ab Initio Ligand Field Theory (pilot matlab implementation)
   Alexander A. Auer      : GIAO ZORA, VPT2 properties, NMR spectrum
   Ute Becker             : Parallelization
   Giovanni Bistoni       : ED, misc. LED, open-shell LED, HFLD
   Martin Brehm           : Molecular dynamics
   Dmytro Bykov           : SCF Hessian
   Vijay G. Chilkuri      : MRCI spin determinant printing, contributions to CSF-ICE
   Dipayan Datta          : RHF DLPNO-CCSD density
   Achintya Kumar Dutta   : EOM-CC, STEOM-CC
   Dmitry Ganyushin       : Spin-Orbit,Spin-Spin,Magnetic field MRCI
   Miquel Garcia          : C-PCM and meta-GGA Hessian, CC/C-PCM, Gaussian charge scheme
   Yang Guo               : DLPNO-NEVPT2, F12-NEVPT2, CIM, IAO-localization
   Andreas Hansen         : Spin unrestricted coupled pair/coupled cluster methods
   Benjamin Helmich-Paris : MC-RPA, TRAH-SCF, COSX integrals
   Lee Huntington         : MR-EOM, pCC
   Robert Izsak           : Overlap fitted RIJCOSX, COSX-SCS-MP3, EOM
   Marcus Kettner         : VPT2
   Christian Kollmar      : KDIIS, OOCD, Brueckner-CCSD(T), CCSD density, CASPT2, CASPT2-K
   Simone Kossmann        : Meta GGA functionals, TD-DFT gradient, OOMP2, MP2 Hessian
   Martin Krupicka        : Initial AUTO-CI
   Lucas Lang             : DCDCAS
   Marvin Lechner         : AUTO-CI (C++ implementation), FIC-MRCC
   Dagmar Lenk            : GEPOL surface, SMD
   Dimitrios Liakos       : Extrapolation schemes; Compound Job, initial MDCI parallelization
   Dimitrios Manganas     : Further ROCIS development; embedding schemes
   Dimitrios Pantazis     : SARC Basis sets
   Anastasios Papadopoulos: AUTO-CI, single reference methods and gradients
   Taras Petrenko         : DFT Hessian,TD-DFT gradient, ASA, ECA, R-Raman, ABS, FL, XAS/XES, NRVS
   Peter Pinski           : DLPNO-MP2, DLPNO-MP2 Gradient
   Christoph Reimann      : Effective Core Potentials
   Marius Retegan         : Local ZFS, SOC
   Christoph Riplinger    : Optimizer, TS searches, QM/MM, DLPNO-CCSD(T), (RO)-DLPNO pert. Triples
   Tobias Risthaus        : Range-separated hybrids, TD-DFT gradient, RPA, STAB
   Michael Roemelt        : Original ROCIS implementation
   Masaaki Saitow         : Open-shell DLPNO-CCSD energy and density
   Barbara Sandhoefer     : DKH picture change effects
   Avijit Sen             : IP-ROCIS
   Kantharuban Sivalingam : CASSCF convergence, NEVPT2, FIC-MRCI
   Bernardo de Souza      : ESD, SOC TD-DFT
   Georgi Stoychev        : AutoAux, RI-MP2 NMR, DLPNO-MP2 response
   Willem Van den Heuvel  : Paramagnetic NMR
   Boris Wezisla          : Elementary symmetry handling
   Frank Wennmohs         : Technical directorship


 We gratefully acknowledge several colleagues who have allowed us to
 interface, adapt or use parts of their codes:
   Stefan Grimme, W. Hujo, H. Kruse, P. Pracht,  : VdW corrections, initial TS optimization,
                  C. Bannwarth, S. Ehlert          DFT functionals, gCP, sTDA/sTD-DF
   Ed Valeev, F. Pavosevic, A. Kumar             : LibInt (2-el integral package), F12 methods
   Garnet Chan, S. Sharma, J. Yang, R. Olivares  : DMRG
   Ulf Ekstrom                                   : XCFun DFT Library
   Mihaly Kallay                                 : mrcc  (arbitrary order and MRCC methods)
   Jiri Pittner, Ondrej Demel                    : Mk-CCSD
   Frank Weinhold                                : gennbo (NPA and NBO analysis)
   Christopher J. Cramer and Donald G. Truhlar   : smd solvation model
   Lars Goerigk                                  : TD-DFT with DH, B97 family of functionals
   V. Asgeirsson, H. Jonsson                     : NEB implementation
   FAccTs GmbH                                   : IRC, NEB, NEB-TS, DLPNO-Multilevel, CI-OPT
                                                   MM, QMMM, 2- and 3-layer-ONIOM, Crystal-QMMM,
                                                   LR-CPCM, SF, NACMEs, symmetry and pop. for TD-DFT,
                                                   nearIR, NL-DFT gradient (VV10), updates on ESD,
                                                   ML-optimized integration grids
   S Lehtola, MJT Oliveira, MAL Marques          : LibXC Library
   Liviu Ungur et al                             : ANISO software


 Your calculation uses the libint2 library for the computation of 2-el integrals
 For citations please refer to: http://libint.valeyev.net

 Your ORCA version has been built with support for libXC version: 5.1.0
 For citations please refer to: https://tddft.org/programs/libxc/

 This ORCA versions uses:
   CBLAS   interface :  Fast vector & matrix operations
   LAPACKE interface :  Fast linear algebra routines
   SCALAPACK package :  Parallel linear algebra routines
   Shared memory     :  Shared parallel matrices
   BLAS/LAPACK       :  OpenBLAS 0.3.15  USE64BITINT DYNAMIC_ARCH NO_AFFINITY Haswell SINGLE_THREADED
        Core in use  :  Haswell
   Copyright (c) 2011-2014, The OpenBLAS Project




***************************************
The coordinates will be read from file: F22l.xyz
***************************************


Your calculation utilizes the geometrical counterpoise correction gCP
Please cite in your paper:
H.Kruse, S. Grimme J.Chem.Phys., 136, (2012), 154101 
   

Your calculation utilizes the atom-pairwise dispersion correction
with the Becke-Johnson damping scheme (D3BJ)
Cite in your paper:
S.Grimme, S.Ehrlich, L.Goerigk, J Comput Chem, (2011), 32, 1456–1465 
S.Grimme, J.Antony, S.Ehrlich and H.Krieg, J.Chem.Phys., 132, (2010), 154104 
   

Your calculation employs the composite approach PBEh-3c.
Please cite in your paper:
S. Grimme, J. G. Brandenburg, C. Bannwarth, A. Hansen J.Chem.Phys., 143, (2015), 054107 
   

================================================================================

----- Orbital basis set information -----
Your calculation utilizes the basis: def2-mSVP

----- AuxJ basis set information -----
Your calculation utilizes the auxiliary basis: def2/J
   F. Weigend, Phys. Chem. Chem. Phys. 8, 1057 (2006).

================================================================================
                                        WARNINGS
                       Please study these warnings very carefully!
================================================================================


INFO   : the flag for use of the SHARK integral package has been found!

================================================================================
                                       INPUT FILE
================================================================================
NAME = pbeh-3c.inp
|  1> ! PBEh-3c def2/J TightSCF DefGrid3
|  2> 
|  3> %maxcore 60000
|  4> 
|  5> %pal
|  6> nprocs 4
|  7> end
|  8> 
|  9> *xyzfile 0 1 F22l.xyz
| 10> 
| 11>                          ****END OF INPUT****
================================================================================

                       ****************************
                       * Single Point Calculation *
                       ****************************

---------------------------------
CARTESIAN COORDINATES (ANGSTROEM)
---------------------------------
  C     -6.112898   -3.570705    0.000000
  C     -5.348345   -2.235174    0.000000
  C     -3.819402   -2.412141    0.000000
  C     -3.055733   -1.076031    0.000000
  C     -1.526553   -1.250192    0.000000
  C     -0.764602    0.086954    0.000000
  C      0.764602   -0.086954    0.000000
  C      1.526553    1.250192    0.000000
  C      3.055733    1.076031    0.000000
  C      3.819402    2.412141    0.000000
  C      5.348345    2.235174    0.000000
  C      6.112898    3.570705    0.000000
  C      7.641978    3.395079    0.000000
  C      8.404717    4.731777    0.000000
  C      9.933836    4.557861    0.000000
  C     10.695745    5.895828    0.000000
  C     12.225034    5.708597    0.000000
  C     -7.641978   -3.395079    0.000000
  C     -8.404717   -4.731777    0.000000
  C     -9.933836   -4.557861    0.000000
  C    -10.695745   -5.895828    0.000000
  C    -12.225034   -5.708597    0.000000
  H     -5.814855   -4.160027    0.883588
  H     -5.814855   -4.160027   -0.883588
  H     -5.646026   -1.645659   -0.883608
  H     -5.646026   -1.645659    0.883608
  H     -3.521602   -3.001559   -0.883614
  H     -3.521602   -3.001559    0.883614
  H     -3.354465   -0.487033   -0.883560
  H     -3.354465   -0.487033    0.883560
  H     -1.227468   -1.838954   -0.883608
  H     -1.227468   -1.838954    0.883608
  H     -1.063537    0.675827   -0.883591
  H     -1.063537    0.675827    0.883591
  H      1.063537   -0.675827   -0.883591
  H      1.063537   -0.675827    0.883591
  H      1.227468    1.838954   -0.883608
  H      1.227468    1.838954    0.883608
  H      3.354465    0.487033   -0.883560
  H      3.354465    0.487033    0.883560
  H      3.521602    3.001559   -0.883614
  H      3.521602    3.001559    0.883614
  H      5.646026    1.645659   -0.883608
  H      5.646026    1.645659    0.883608
  H      5.814855    4.160027   -0.883588
  H      5.814855    4.160027    0.883588
  H      7.940466    2.806136   -0.883641
  H      7.940466    2.806136    0.883641
  H      8.106033    5.320644   -0.883687
  H      8.106033    5.320644    0.883687
  H     10.233474    3.969222   -0.883742
  H     10.233474    3.969222    0.883742
  H     10.392961    6.481354   -0.883474
  H     10.392961    6.481354    0.883474
  H     12.547055    5.144782   -0.889200
  H     12.750442    6.675068    0.000000
  H     12.547055    5.144782    0.889200
  H     -7.940466   -2.806136   -0.883641
  H     -7.940466   -2.806136    0.883641
  H     -8.106033   -5.320644   -0.883687
  H     -8.106033   -5.320644    0.883687
  H    -10.233474   -3.969222   -0.883742
  H    -10.233474   -3.969222    0.883742
  H    -10.392961   -6.481354   -0.883474
  H    -10.392961   -6.481354    0.883474
  H    -12.547055   -5.144782   -0.889200
  H    -12.750442   -6.675068    0.000000
  H    -12.547055   -5.144782    0.889200

----------------------------
CARTESIAN COORDINATES (A.U.)
----------------------------
  NO LB      ZA    FRAG     MASS         X           Y           Z
   0 C     6.0000    0    12.011  -11.551703   -6.747655    0.000000
   1 C     6.0000    0    12.011  -10.106907   -4.223866    0.000000
   2 C     6.0000    0    12.011   -7.217624   -4.558285    0.000000
   3 C     6.0000    0    12.011   -5.774498   -2.033404    0.000000
   4 C     6.0000    0    12.011   -2.884767   -2.362520    0.000000
   5 C     6.0000    0    12.011   -1.444888    0.164319    0.000000
   6 C     6.0000    0    12.011    1.444888   -0.164319    0.000000
   7 C     6.0000    0    12.011    2.884767    2.362520    0.000000
   8 C     6.0000    0    12.011    5.774498    2.033404    0.000000
   9 C     6.0000    0    12.011    7.217624    4.558285    0.000000
  10 C     6.0000    0    12.011   10.106907    4.223866    0.000000
  11 C     6.0000    0    12.011   11.551703    6.747655    0.000000
  12 C     6.0000    0    12.011   14.441245    6.415770    0.000000
  13 C     6.0000    0    12.011   15.882613    8.941762    0.000000
  14 C     6.0000    0    12.011   18.772230    8.613109    0.000000
  15 C     6.0000    0    12.011   20.212030   11.141500    0.000000
  16 C     6.0000    0    12.011   23.101966   10.787686    0.000000
  17 C     6.0000    0    12.011  -14.441245   -6.415770    0.000000
  18 C     6.0000    0    12.011  -15.882613   -8.941762    0.000000
  19 C     6.0000    0    12.011  -18.772230   -8.613109    0.000000
  20 C     6.0000    0    12.011  -20.212030  -11.141500    0.000000
  21 C     6.0000    0    12.011  -23.101966  -10.787686    0.000000
  22 H     1.0000    0     1.008  -10.988484   -7.861312    1.669740
  23 H     1.0000    0     1.008  -10.988484   -7.861312   -1.669740
  24 H     1.0000    0     1.008  -10.669443   -3.109845   -1.669778
  25 H     1.0000    0     1.008  -10.669443   -3.109845    1.669778
  26 H     1.0000    0     1.008   -6.654862   -5.672125   -1.669788
  27 H     1.0000    0     1.008   -6.654862   -5.672125    1.669788
  28 H     1.0000    0     1.008   -6.339020   -0.920358   -1.669687
  29 H     1.0000    0     1.008   -6.339020   -0.920358    1.669687
  30 H     1.0000    0     1.008   -2.319579   -3.475120   -1.669778
  31 H     1.0000    0     1.008   -2.319579   -3.475120    1.669778
  32 H     1.0000    0     1.008   -2.009794    1.277127   -1.669745
  33 H     1.0000    0     1.008   -2.009794    1.277127    1.669745
  34 H     1.0000    0     1.008    2.009794   -1.277127   -1.669745
  35 H     1.0000    0     1.008    2.009794   -1.277127    1.669745
  36 H     1.0000    0     1.008    2.319579    3.475120   -1.669778
  37 H     1.0000    0     1.008    2.319579    3.475120    1.669778
  38 H     1.0000    0     1.008    6.339020    0.920358   -1.669687
  39 H     1.0000    0     1.008    6.339020    0.920358    1.669687
  40 H     1.0000    0     1.008    6.654862    5.672125   -1.669788
  41 H     1.0000    0     1.008    6.654862    5.672125    1.669788
  42 H     1.0000    0     1.008   10.669443    3.109845   -1.669778
  43 H     1.0000    0     1.008   10.669443    3.109845    1.669778
  44 H     1.0000    0     1.008   10.988484    7.861312   -1.669740
  45 H     1.0000    0     1.008   10.988484    7.861312    1.669740
  46 H     1.0000    0     1.008   15.005305    5.302829   -1.669839
  47 H     1.0000    0     1.008   15.005305    5.302829    1.669839
  48 H     1.0000    0     1.008   15.318183   10.054559   -1.669926
  49 H     1.0000    0     1.008   15.318183   10.054559    1.669926
  50 H     1.0000    0     1.008   19.338464    7.500743   -1.670031
  51 H     1.0000    0     1.008   19.338464    7.500743    1.670031
  52 H     1.0000    0     1.008   19.639850   12.247984   -1.669524
  53 H     1.0000    0     1.008   19.639850   12.247984    1.669524
  54 H     1.0000    0     1.008   23.710498    9.722228   -1.680344
  55 H     1.0000    0     1.008   24.094843   12.614050    0.000000
  56 H     1.0000    0     1.008   23.710498    9.722228    1.680344
  57 H     1.0000    0     1.008  -15.005305   -5.302829   -1.669839
  58 H     1.0000    0     1.008  -15.005305   -5.302829    1.669839
  59 H     1.0000    0     1.008  -15.318183  -10.054559   -1.669926
  60 H     1.0000    0     1.008  -15.318183  -10.054559    1.669926
  61 H     1.0000    0     1.008  -19.338464   -7.500743   -1.670031
  62 H     1.0000    0     1.008  -19.338464   -7.500743    1.670031
  63 H     1.0000    0     1.008  -19.639850  -12.247984   -1.669524
  64 H     1.0000    0     1.008  -19.639850  -12.247984    1.669524
  65 H     1.0000    0     1.008  -23.710498   -9.722228   -1.680344
  66 H     1.0000    0     1.008  -24.094843  -12.614050    0.000000
  67 H     1.0000    0     1.008  -23.710498   -9.722228    1.680344

--------------------------------
INTERNAL COORDINATES (ANGSTROEM)
--------------------------------
 C      0   0   0     0.000000000000     0.00000000     0.00000000
 C      1   0   0     1.538891550584     0.00000000     0.00000000
 C      2   1   0     1.539150022962   113.18758245     0.00000000
 C      3   2   1     1.538954167673   113.14833254   180.00000000
 C      4   3   2     1.539065708577   113.25311261   180.00000000
 C      5   4   3     1.539002704327   113.17843343   180.00000000
 C      6   5   4     1.539060460345   113.18788686   180.00000000
 C      7   6   5     1.539002704327   113.18788686   180.00000121
 C      8   7   6     1.539065708577   113.17843343   180.00000000
 C      9   8   7     1.538954167673   113.25311261   180.00000000
 C     10   9   8     1.539150022962   113.14833254   180.00000000
 C     11  10   9     1.538891550584   113.18758245   180.00000000
 C     12  11  10     1.539132477996   113.23773895   180.00000000
 C     13  12  11     1.539003790826   113.15756629   180.00000000
 C     14  13  12     1.538977746538   113.22101204   180.00000085
 C     15  14  13     1.539694906188   113.17078433   180.00000000
 C     16  15  14     1.540707068363   112.67951033   180.00000000
 C      1   2   3     1.539132477996   113.23773895   180.00000000
 C     18   1   2     1.539003790826   113.15756629   180.00000000
 C     19  18   1     1.538977746538   113.22101204   180.00000085
 C     20  19  18     1.539694906188   113.17078433   180.00000000
 C     21  20  19     1.540707068363   112.67951033   180.00000000
 H      1   2   3     1.103112858795   109.23266968    58.03183240
 H      1   2   3     1.103112858795   109.23266968   301.96816760
 H      2   1   3     1.103134230027   109.25137291   121.95740517
 H      2   1   3     1.103134230027   109.25137291   238.04259483
 H      3   2   1     1.103119830894   109.24488436    58.04075438
 H      3   2   1     1.103119830894   109.24488436   301.95924562
 H      4   3   2     1.103104026686   109.21932756   301.97779561
 H      4   3   2     1.103104026686   109.21932756    58.02220439
 H      5   4   3     1.103112084357   109.25562255    58.04681835
 H      5   4   3     1.103112084357   109.25562255   301.95318165
 H      6   5   4     1.103116795257   109.24709164   301.96012736
 H      6   5   4     1.103116795257   109.24709164    58.03987264
 H      7   6   5     1.103116795257   109.24307910    58.03762742
 H      7   6   5     1.103116795257   109.24307910   301.96237258
 H      8   7   6     1.103112084357   109.23785894   301.96312339
 H      8   7   6     1.103112084357   109.23785894    58.03687661
 H      9   8   7     1.103104026686   109.23798413    58.03262945
 H      9   8   7     1.103104026686   109.23798413   301.96737055
 H     10   9   8     1.103119830894   109.26456921   301.94822179
 H     10   9   8     1.103119830894   109.26456921    58.05177821
 H     11  10   9     1.103134230027   109.23870432    58.03550606
 H     11  10   9     1.103134230027   109.23870432   301.96449394
 H     12  11  10     1.103112858795   109.23266968   301.96816760
 H     12  11  10     1.103112858795   109.23266968    58.03183240
 H     13  12  11     1.103073143665   109.25375744    58.05242702
 H     13  12  11     1.103073143665   109.25375744   301.94757298
 H     14  13  12     1.103122017189   109.23571949   301.95698866
 H     14  13  12     1.103122017189   109.23571949    58.04301134
 H     15  14  13     1.103303659349   109.27698044    58.05675653
 H     15  14  13     1.103303659349   109.27698044   301.94324347
 H     16  15  14     1.102291244531   109.00602083   302.03743074
 H     16  15  14     1.102291244531   109.00602083    57.96256926
 H     17  16  15     1.101027503590   110.64246346    59.65688887
 H     17  16  15     1.100053995872   111.55011225   180.00000085
 H     17  16  15     1.101027503590   110.64246346   300.34311113
 H     18   1   2     1.103073143665   109.25375744    58.05242702
 H     18   1   2     1.103073143665   109.25375744   301.94757298
 H     19  18   1     1.103122017189   109.23571949   301.95698866
 H     19  18   1     1.103122017189   109.23571949    58.04301134
 H     20  19  18     1.103303659349   109.27698044    58.05675653
 H     20  19  18     1.103303659349   109.27698044   301.94324347
 H     21  20  19     1.102291244531   109.00602083   302.03743074
 H     21  20  19     1.102291244531   109.00602083    57.96256926
 H     22  21  20     1.101027503590   110.64246346    59.65688887
 H     22  21  20     1.100053995872   111.55011225   180.00000085
 H     22  21  20     1.101027503590   110.64246346   300.34311113

---------------------------
INTERNAL COORDINATES (A.U.)
---------------------------
 C      0   0   0     0.000000000000     0.00000000     0.00000000
 C      1   0   0     2.908083580409     0.00000000     0.00000000
 C      2   1   0     2.908572022417   113.18758245     0.00000000
 C      3   2   1     2.908201909558   113.14833254   180.00000000
 C      4   3   2     2.908412691320   113.25311261   180.00000000
 C      5   4   3     2.908293630543   113.17843343   180.00000000
 C      6   5   4     2.908402773600   113.18788686   180.00000000
 C      7   6   5     2.908293630543   113.18788686   180.00000121
 C      8   7   6     2.908412691320   113.17843343   180.00000000
 C      9   8   7     2.908201909558   113.25311261   180.00000000
 C     10   9   8     2.908572022417   113.14833254   180.00000000
 C     11  10   9     2.908083580409   113.18758245   180.00000000
 C     12  11  10     2.908538867236   113.23773895   180.00000000
 C     13  12  11     2.908295683728   113.15756629   180.00000000
 C     14  13  12     2.908246467156   113.22101204   180.00000085
 C     15  14  13     2.909601702489   113.17078433   180.00000000
 C     16  15  14     2.911514411803   112.67951033   180.00000000
 C      1   2   3     2.908538867236   113.23773895   180.00000000
 C     18   1   2     2.908295683728   113.15756629   180.00000000
 C     19  18   1     2.908246467156   113.22101204   180.00000085
 C     20  19  18     2.909601702489   113.17078433   180.00000000
 C     21  20  19     2.911514411803   112.67951033   180.00000000
 H      1   2   3     2.084581197930   109.23266968    58.03183240
 H      1   2   3     2.084581197930   109.23266968   301.96816760
 H      2   1   3     2.084621583705   109.25137291   121.95740517
 H      2   1   3     2.084621583705   109.25137291   238.04259483
 H      3   2   1     2.084594373286   109.24488436    58.04075438
 H      3   2   1     2.084594373286   109.24488436   301.95924562
 H      4   3   2     2.084564507662   109.21932756   301.97779561
 H      4   3   2     2.084564507662   109.21932756    58.02220439
 H      5   4   3     2.084579734453   109.25562255    58.04681835
 H      5   4   3     2.084579734453   109.25562255   301.95318165
 H      6   5   4     2.084588636764   109.24709164   301.96012736
 H      6   5   4     2.084588636764   109.24709164    58.03987264
 H      7   6   5     2.084588636764   109.24307910    58.03762742
 H      7   6   5     2.084588636764   109.24307910   301.96237258
 H      8   7   6     2.084579734453   109.23785894   301.96312339
 H      8   7   6     2.084579734453   109.23785894    58.03687661
 H      9   8   7     2.084564507662   109.23798413    58.03262945
 H      9   8   7     2.084564507662   109.23798413   301.96737055
 H     10   9   8     2.084594373286   109.26456921   301.94822179
 H     10   9   8     2.084594373286   109.26456921    58.05177821
 H     11  10   9     2.084621583705   109.23870432    58.03550606
 H     11  10   9     2.084621583705   109.23870432   301.96449394
 H     12  11  10     2.084581197930   109.23266968   301.96816760
 H     12  11  10     2.084581197930   109.23266968    58.03183240
 H     13  12  11     2.084506147210   109.25375744    58.05242702
 H     13  12  11     2.084506147210   109.25375744   301.94757298
 H     14  13  12     2.084598504787   109.23571949   301.95698866
 H     14  13  12     2.084598504787   109.23571949    58.04301134
 H     15  14  13     2.084941758722   109.27698044    58.05675653
 H     15  14  13     2.084941758722   109.27698044   301.94324347
 H     16  15  14     2.083028571983   109.00602083   302.03743074
 H     16  15  14     2.083028571983   109.00602083    57.96256926
 H     17  16  15     2.080640447700   110.64246346    59.65688887
 H     17  16  15     2.078800784724   111.55011225   180.00000085
 H     17  16  15     2.080640447700   110.64246346   300.34311113
 H     18   1   2     2.084506147210   109.25375744    58.05242702
 H     18   1   2     2.084506147210   109.25375744   301.94757298
 H     19  18   1     2.084598504787   109.23571949   301.95698866
 H     19  18   1     2.084598504787   109.23571949    58.04301134
 H     20  19  18     2.084941758722   109.27698044    58.05675653
 H     20  19  18     2.084941758722   109.27698044   301.94324347
 H     21  20  19     2.083028571983   109.00602083   302.03743074
 H     21  20  19     2.083028571983   109.00602083    57.96256926
 H     22  21  20     2.080640447700   110.64246346    59.65688887
 H     22  21  20     2.078800784724   111.55011225   180.00000085
 H     22  21  20     2.080640447700   110.64246346   300.34311113

---------------------
BASIS SET INFORMATION
---------------------
There are 2 groups of distinct atoms

 Group   1 Type C   : 8s4p1d contracted to 4s2p1d pattern {5111/31/1}
 Group   2 Type H   : 4s contracted to 2s pattern {31}

Atom   0C    basis set group =>   1
Atom   1C    basis set group =>   1
Atom   2C    basis set group =>   1
Atom   3C    basis set group =>   1
Atom   4C    basis set group =>   1
Atom   5C    basis set group =>   1
Atom   6C    basis set group =>   1
Atom   7C    basis set group =>   1
Atom   8C    basis set group =>   1
Atom   9C    basis set group =>   1
Atom  10C    basis set group =>   1
Atom  11C    basis set group =>   1
Atom  12C    basis set group =>   1
Atom  13C    basis set group =>   1
Atom  14C    basis set group =>   1
Atom  15C    basis set group =>   1
Atom  16C    basis set group =>   1
Atom  17C    basis set group =>   1
Atom  18C    basis set group =>   1
Atom  19C    basis set group =>   1
Atom  20C    basis set group =>   1
Atom  21C    basis set group =>   1
Atom  22H    basis set group =>   2
Atom  23H    basis set group =>   2
Atom  24H    basis set group =>   2
Atom  25H    basis set group =>   2
Atom  26H    basis set group =>   2
Atom  27H    basis set group =>   2
Atom  28H    basis set group =>   2
Atom  29H    basis set group =>   2
Atom  30H    basis set group =>   2
Atom  31H    basis set group =>   2
Atom  32H    basis set group =>   2
Atom  33H    basis set group =>   2
Atom  34H    basis set group =>   2
Atom  35H    basis set group =>   2
Atom  36H    basis set group =>   2
Atom  37H    basis set group =>   2
Atom  38H    basis set group =>   2
Atom  39H    basis set group =>   2
Atom  40H    basis set group =>   2
Atom  41H    basis set group =>   2
Atom  42H    basis set group =>   2
Atom  43H    basis set group =>   2
Atom  44H    basis set group =>   2
Atom  45H    basis set group =>   2
Atom  46H    basis set group =>   2
Atom  47H    basis set group =>   2
Atom  48H    basis set group =>   2
Atom  49H    basis set group =>   2
Atom  50H    basis set group =>   2
Atom  51H    basis set group =>   2
Atom  52H    basis set group =>   2
Atom  53H    basis set group =>   2
Atom  54H    basis set group =>   2
Atom  55H    basis set group =>   2
Atom  56H    basis set group =>   2
Atom  57H    basis set group =>   2
Atom  58H    basis set group =>   2
Atom  59H    basis set group =>   2
Atom  60H    basis set group =>   2
Atom  61H    basis set group =>   2
Atom  62H    basis set group =>   2
Atom  63H    basis set group =>   2
Atom  64H    basis set group =>   2
Atom  65H    basis set group =>   2
Atom  66H    basis set group =>   2
Atom  67H    basis set group =>   2
---------------------------------
AUXILIARY/J BASIS SET INFORMATION
---------------------------------
There are 2 groups of distinct atoms

 Group   1 Type C   : 12s5p4d2f1g contracted to 6s4p3d1f1g pattern {711111/2111/211/2/1}
 Group   2 Type H   : 5s2p1d contracted to 3s1p1d pattern {311/2/1}

Atom   0C    basis set group =>   1
Atom   1C    basis set group =>   1
Atom   2C    basis set group =>   1
Atom   3C    basis set group =>   1
Atom   4C    basis set group =>   1
Atom   5C    basis set group =>   1
Atom   6C    basis set group =>   1
Atom   7C    basis set group =>   1
Atom   8C    basis set group =>   1
Atom   9C    basis set group =>   1
Atom  10C    basis set group =>   1
Atom  11C    basis set group =>   1
Atom  12C    basis set group =>   1
Atom  13C    basis set group =>   1
Atom  14C    basis set group =>   1
Atom  15C    basis set group =>   1
Atom  16C    basis set group =>   1
Atom  17C    basis set group =>   1
Atom  18C    basis set group =>   1
Atom  19C    basis set group =>   1
Atom  20C    basis set group =>   1
Atom  21C    basis set group =>   1
Atom  22H    basis set group =>   2
Atom  23H    basis set group =>   2
Atom  24H    basis set group =>   2
Atom  25H    basis set group =>   2
Atom  26H    basis set group =>   2
Atom  27H    basis set group =>   2
Atom  28H    basis set group =>   2
Atom  29H    basis set group =>   2
Atom  30H    basis set group =>   2
Atom  31H    basis set group =>   2
Atom  32H    basis set group =>   2
Atom  33H    basis set group =>   2
Atom  34H    basis set group =>   2
Atom  35H    basis set group =>   2
Atom  36H    basis set group =>   2
Atom  37H    basis set group =>   2
Atom  38H    basis set group =>   2
Atom  39H    basis set group =>   2
Atom  40H    basis set group =>   2
Atom  41H    basis set group =>   2
Atom  42H    basis set group =>   2
Atom  43H    basis set group =>   2
Atom  44H    basis set group =>   2
Atom  45H    basis set group =>   2
Atom  46H    basis set group =>   2
Atom  47H    basis set group =>   2
Atom  48H    basis set group =>   2
Atom  49H    basis set group =>   2
Atom  50H    basis set group =>   2
Atom  51H    basis set group =>   2
Atom  52H    basis set group =>   2
Atom  53H    basis set group =>   2
Atom  54H    basis set group =>   2
Atom  55H    basis set group =>   2
Atom  56H    basis set group =>   2
Atom  57H    basis set group =>   2
Atom  58H    basis set group =>   2
Atom  59H    basis set group =>   2
Atom  60H    basis set group =>   2
Atom  61H    basis set group =>   2
Atom  62H    basis set group =>   2
Atom  63H    basis set group =>   2
Atom  64H    basis set group =>   2
Atom  65H    basis set group =>   2
Atom  66H    basis set group =>   2
Atom  67H    basis set group =>   2


           ************************************************************
           *        Program running with 4 parallel MPI-processes     *
           *              working on a common directory               *
           ************************************************************
------------------------------------------------------------------------------
                           ORCA GTO INTEGRAL CALCULATION
                           -- RI-GTO INTEGRALS CHOSEN --
------------------------------------------------------------------------------
------------------------------------------------------------------------------
                   ___                                                        
                  /   \      - P O W E R E D   B Y -                         
                 /     \                                                     
                 |  |  |   _    _      __       _____    __    __             
                 |  |  |  | |  | |    /  \     |  _  \  |  |  /  |          
                  \  \/   | |  | |   /    \    | | | |  |  | /  /          
                 / \  \   | |__| |  /  /\  \   | |_| |  |  |/  /          
                |  |  |   |  __  | /  /__\  \  |    /   |      \           
                |  |  |   | |  | | |   __   |  |    \   |  |\   \          
                \     /   | |  | | |  |  |  |  | |\  \  |  | \   \       
                 \___/    |_|  |_| |__|  |__|  |_| \__\ |__|  \__/        
                                                                              
                      - O R C A' S   B I G   F R I E N D -                    
                                      &                                       
                       - I N T E G R A L  F E E D E R -                       
                                                                              
 v1 FN, 2020, v2 2021                                                         
------------------------------------------------------------------------------


Reading SHARK input file pbeh-3c.SHARKINP.tmp ... ok
----------------------
SHARK INTEGRAL PACKAGE
----------------------

Number of atoms                             ...     68
Number of basis functions                   ...    422
Number of shells                            ...    246
Maximum angular momentum                    ...      2
Integral batch strategy                     ... SHARK/LIBINT Hybrid
RI-J (if used) integral strategy            ... SPLIT-RIJ (Revised 2003 algorithm where possible)
Printlevel                                  ...      1
Contraction scheme used                     ... SEGMENTED contraction
Coulomb Range Separation                    ... NOT USED
Exchange Range Separation                   ... NOT USED
Finite Nucleus Model                        ... NOT USED
Auxiliary Coulomb fitting basis             ... AVAILABLE
   # of basis functions in Aux-J            ...   1584
   # of shells in Aux-J                     ...    560
   Maximum angular momentum in Aux-J        ...      4
Auxiliary J/K fitting basis                 ... NOT available
Auxiliary Correlation fitting basis         ... NOT available
Auxiliary 'external' fitting basis          ... NOT available
Integral threshold                          ...     2.500000e-11
Primitive cut-off                           ...     2.500000e-12
Primitive pair pre-selection threshold      ...     2.500000e-12

Calculating pre-screening integrals         ... done (  0.1 sec) Dimension = 246
Organizing shell pair data                  ... done (  0.5 sec)
Shell pair information
Total number of shell pairs                 ...     30381
Shell pairs after pre-screening             ...     11469
Total number of primitive shell pairs       ...    111109
Primitive shell pairs kept                  ...     27126
          la=0 lb=0:   5801 shell pairs
          la=1 lb=0:   3368 shell pairs
          la=1 lb=1:    506 shell pairs
          la=2 lb=0:   1290 shell pairs
          la=2 lb=1:    422 shell pairs
          la=2 lb=2:     82 shell pairs

Calculating one electron integrals          ... done (  0.0 sec)
Calculating RI/J V-Matrix + Cholesky decomp.... done (  1.3 sec)
Calculating Nuclear repulsion               ... done (  0.1 sec) ENN=   1540.891324537697 Eh

SHARK setup successfully completed in   3.0 seconds

Maximum memory used throughout the entire GTOINT-calculation: 31.5 MB


           ************************************************************
           *        Program running with 4 parallel MPI-processes     *
           *              working on a common directory               *
           ************************************************************
-------------------------------------------------------------------------------
                                 ORCA SCF
-------------------------------------------------------------------------------

------------
SCF SETTINGS
------------
Hamiltonian:
 Density Functional     Method          .... DFT(GTOs)
 Exchange Functional    Exchange        .... PBE
   PBE kappa parameter   XKappa         ....  1.024500
   PBE mue parameter    XMuePBE         ....  0.123457
 Correlation Functional Correlation     .... PBE
   PBE beta parameter  CBetaPBE         ....  0.030000
 LDA part of GGA corr.  LDAOpt          .... PW91-LDA
 Gradients option       PostSCFGGA      .... off
 Hybrid DFT is turned on
   Fraction HF Exchange ScalHFX         ....  0.420000
   Scaling of DF-GGA-X  ScalDFX         ....  0.580000
   Scaling of DF-GGA-C  ScalDFC         ....  1.000000
   Scaling of DF-LDA-C  ScalLDAC        ....  1.000000
   Perturbative correction              ....  0.000000
   Density functional embedding theory  .... OFF
 RI-approximation to the Coulomb term is turned on
   Number of AuxJ basis functions       .... 1584
   RIJ-ON(X) (HFX calculated with O(N)) .... on
   Number of AuxJ basis functions       .... 1584
   RIJ-COSX (HFX calculated with COS-X)).... on


General Settings:
 Integral files         IntName         .... pbeh-3c
 Hartree-Fock type      HFTyp           .... RHF
 Total Charge           Charge          ....    0
 Multiplicity           Mult            ....    1
 Number of Electrons    NEL             ....  178
 Basis Dimension        Dim             ....  422
 Nuclear Repulsion      ENuc            ....   1540.8913245377 Eh

Convergence Acceleration:
 DIIS                   CNVDIIS         .... on
   Start iteration      DIISMaxIt       ....    12
   Startup error        DIISStart       ....  0.200000
   # of expansion vecs  DIISMaxEq       ....     5
   Bias factor          DIISBfac        ....   1.050
   Max. coefficient     DIISMaxC        ....  10.000
 Trust-Rad. Augm. Hess. CNVTRAH         .... auto
   Auto Start mean grad. ratio tolernc. ....  1.125000
   Auto Start start iteration           ....    20
   Auto Start num. interpolation iter.  ....    10
   Max. Number of Micro iterations      ....    16
   Max. Number of Macro iterations      .... Maxiter - #DIIS iter
   Number of Davidson start vectors     ....     2
   Converg. threshold I  (grad. norm)   ....   1.000e-05
   Converg. threshold II (energy diff.) ....   1.000e-08
   Grad. Scal. Fac. for Micro threshold ....   0.100
   Minimum threshold for Micro iter.    ....   0.010
   NR start threshold (gradient norm)   ....   0.001
   Initial trust radius                 ....   0.400
   Minimum AH scaling param. (alpha)    ....   1.000
   Maximum AH scaling param. (alpha)    .... 1000.000
   Orbital update algorithm             .... Taylor
   White noise on init. David. guess    .... on
   Maximum white noise                  ....   0.010
   Quad. conv. algorithm                .... NR
   COSX micro iterations for RIJONX calc.... off
 SOSCF                  CNVSOSCF        .... on
   Start iteration      SOSCFMaxIt      ....   150
   Startup grad/error   SOSCFStart      ....  0.003300
 Level Shifting         CNVShift        .... on
   Level shift para.    LevelShift      ....    0.2500
   Turn off err/grad.   ShiftErr        ....    0.0010
 Zerner damping         CNVZerner       .... off
 Static damping         CNVDamp         .... on
   Fraction old density DampFac         ....    0.7000
   Max. Damping (<1)    DampMax         ....    0.9800
   Min. Damping (>=0)   DampMin         ....    0.0000
   Turn off err/grad.   DampErr         ....    0.1000
 Fernandez-Rico         CNVRico         .... off

SCF Procedure:
 Maximum # iterations   MaxIter         ....   125
 SCF integral mode      SCFMode         .... Direct
   Integral package                     .... SHARK and LIBINT hybrid scheme
 Reset frequency        DirectResetFreq ....    20
 Integral Threshold     Thresh          ....  2.500e-11 Eh
 Primitive CutOff       TCut            ....  2.500e-12 Eh

Convergence Tolerance:
 Convergence Check Mode ConvCheckMode   .... Total+1el-Energy
 Convergence forced     ConvForced      .... 0
 Energy Change          TolE            ....  1.000e-08 Eh
 1-El. energy change                    ....  1.000e-05 Eh
 Orbital Gradient       TolG            ....  1.000e-05
 Orbital Rotation angle TolX            ....  1.000e-05
 DIIS Error             TolErr          ....  5.000e-07


Diagonalization of the overlap matrix:
Smallest eigenvalue                        ... 3.129e-03
Time for diagonalization                   ...    0.122 sec
Threshold for overlap eigenvalues          ... 1.000e-08
Number of eigenvalues below threshold      ... 0
Time for construction of square roots      ...    0.451 sec
Total time needed                          ...    0.575 sec

--------------------------------
INITIAL GUESS: MINIMAL BASIS EHT
--------------------------------
The minimal basis has 156 functions
EHT matrix was diagonalized
Basis set overlap was calculated now projecting the orbitals
Using GuessMode=FMatrix for the initial guess
C*T matrix was formed
Effective Fockian was calculated
Effective Fockian was diagonalized
Initial density was built
                      ------------------
                      INITIAL GUESS DONE
                      ------------------
-------------------
DFT GRID GENERATION
-------------------

General Integration Accuracy     IntAcc      ... 4.959
Radial Grid Type                 RadialGrid  ... OptM3 with GC (2021)
Angular Grid (max. ang.)         AngularGrid ... 6 (Lebedev-590)
Angular grid pruning method      GridPruning ... 4 (adaptive)
Weight generation scheme         WeightScheme... Becke
Basis function cutoff            BFCut       ... 1.0000e-11
Integration weight cutoff        WCut        ... 1.0000e-14
Angular grids for H and He will be reduced by one unit
Partially contracted basis set               ... off
Rotationally invariant grid construction     ... off

Total number of grid points                  ...   704896
Total number of batches                      ...    11054
Average number of points per batch           ...       63
Average number of grid points per atom       ...    10366
Time for grid setup =   14.469 sec

--------------------
COSX GRID GENERATION
--------------------

GRIDX 1
-------
General Integration Accuracy     IntAcc      ... 4.020
Radial Grid Type                 RadialGrid  ... OptM3 with GC (2021)
Angular Grid (max. ang.)         AngularGrid ... 2 (Lebedev-110)
Angular grid pruning method      GridPruning ... 4 (adaptive)
Weight generation scheme         WeightScheme... Becke
Basis function cutoff            BFCut       ... 1.0000e-11
Integration weight cutoff        WCut        ... 1.0000e-14
Angular grids for H and He will be reduced by one unit
Partially contracted basis set               ... on
Rotationally invariant grid construction     ... off

Total number of grid points                  ...    73148
Total number of batches                      ...     1176
Average number of points per batch           ...       62
Average number of grid points per atom       ...     1076
UseSFitting                                  ... on

GRIDX 2
-------
General Integration Accuracy     IntAcc      ... 4.338
Radial Grid Type                 RadialGrid  ... OptM3 with GC (2021)
Angular Grid (max. ang.)         AngularGrid ... 3 (Lebedev-194)
Angular grid pruning method      GridPruning ... 4 (adaptive)
Weight generation scheme         WeightScheme... Becke
Basis function cutoff            BFCut       ... 1.0000e-11
Integration weight cutoff        WCut        ... 1.0000e-14
Angular grids for H and He will be reduced by one unit
Partially contracted basis set               ... on
Rotationally invariant grid construction     ... off

Total number of grid points                  ...   158340
Total number of batches                      ...     2508
Average number of points per batch           ...       63
Average number of grid points per atom       ...     2329
UseSFitting                                  ... on

GRIDX 3
-------
General Integration Accuracy     IntAcc      ... 4.871
Radial Grid Type                 RadialGrid  ... OptM3 with GC (2021)
Angular Grid (max. ang.)         AngularGrid ... 4 (Lebedev-302)
Angular grid pruning method      GridPruning ... 4 (adaptive)
Weight generation scheme         WeightScheme... Becke
Basis function cutoff            BFCut       ... 1.0000e-11
Integration weight cutoff        WCut        ... 1.0000e-14
Angular grids for H and He will be reduced by one unit
Partially contracted basis set               ... on
Rotationally invariant grid construction     ... off

Total number of grid points                  ...   313472
Total number of batches                      ...     4948
Average number of points per batch           ...       63
Average number of grid points per atom       ...     4610
UseSFitting                                  ... on

Time for X-Grid setup             =   11.721 sec

--------------
SCF ITERATIONS
--------------
ITER       Energy         Delta-E        Max-DP      RMS-DP      [F,P]     Damp
               ***  Starting incremental Fock matrix formation  ***
  0   -862.7418261516   0.000000000000 0.02655905  0.00112662  0.3860711 0.7000
  1   -863.1867203549  -0.444894203317 0.01991810  0.00086659  0.2734763 0.7000
                               ***Turning on DIIS***
  2   -863.5053748809  -0.318654526047 0.01463157  0.00064878  0.1928806 0.7000
  3   -863.7313071172  -0.225932236256 0.01118430  0.00050488  0.1359246 0.7000
  4   -863.8911244865  -0.159817369283 0.02765932  0.00126650  0.0952157 0.0000
                      *** Initiating the SOSCF procedure ***
                           *** Shutting down DIIS ***
                      *** Re-Reading the Fockian *** 
                      *** Removing any level shift *** 
ITER      Energy       Delta-E        Grad      Rot      Max-DP    RMS-DP
  5   -864.27029023  -0.3791657457  0.001049  0.001049  0.001564  0.000082
               *** Restarting incremental Fock matrix formation ***
  6   -864.27045782  -0.0001675843  0.000317  0.000591  0.000758  0.000024
  7   -864.27046141  -0.0000035899  0.000228  0.000174  0.000358  0.000008
  8   -864.27046642  -0.0000050104  0.000012  0.000026  0.000024  0.000001
  9   -864.27046644  -0.0000000253  0.000004  0.000009  0.000015  0.000000
                  ***Gradient check signals convergence***
              ***Rediagonalizing the Fockian in SOSCF/NRSCF***

               *****************************************************
               *                     SUCCESS                       *
               *           SCF CONVERGED AFTER  10 CYCLES          *
               *****************************************************

Old exchange energy                            =    -54.720552213 Eh
New exchange energy                            =    -54.720488381 Eh
Exchange energy change after final integration =      0.000063832 Eh
Total energy after final integration           =   -864.270402616 Eh
Final COS-X integration done in                =    44.136 sec

----------------
TOTAL SCF ENERGY
----------------

Total Energy       :         -864.27040262 Eh          -23517.99329 eV

Components:
Nuclear Repulsion  :         1540.89132454 Eh           41929.78461 eV
Electronic Energy  :        -2405.16172715 Eh          -65447.77790 eV
One Electron Energy:        -4223.57600758 Eh         -114929.34606 eV
Two Electron Energy:         1818.41428043 Eh           49481.56816 eV
Max COSX asymmetry :            0.00000084 Eh               0.00002 eV

Virial components:
Potential Energy   :        -1720.14778859 Eh          -46807.60098 eV
Kinetic Energy     :          855.87738598 Eh           23289.60769 eV
Virial Ratio       :            2.00980633


DFT components:
N(Alpha)           :       88.999907163822 electrons
N(Beta)            :       88.999907163822 electrons
N(Total)           :      177.999814327644 electrons
E(X)               :      -72.480913987359 Eh       
E(C)               :       -7.538571528710 Eh       
E(XC)              :      -80.019485516069 Eh       
DFET-embed. en.    :        0.000000000000 Eh       

---------------
SCF CONVERGENCE
---------------

  Last Energy change         ...   -5.8770e-09  Tolerance :   1.0000e-08
  Last MAX-Density change    ...    1.9984e-15  Tolerance :   1.0000e-07
  Last RMS-Density change    ...    2.7390e-17  Tolerance :   5.0000e-09
  Last Orbital Gradient      ...    1.4181e-06  Tolerance :   1.0000e-05
  Last Orbital Rotation      ...    3.6318e-06  Tolerance :   1.0000e-05

             **** THE GBW FILE WAS UPDATED (pbeh-3c.gbw) ****
             **** DENSITY pbeh-3c.scfp WAS UPDATED ****
             **** ENERGY FILE WAS UPDATED (pbeh-3c.en.tmp) ****
             **** THE GBW FILE WAS UPDATED (pbeh-3c.gbw) ****
             **** DENSITY pbeh-3c.scfp WAS UPDATED ****
----------------
ORBITAL ENERGIES
----------------

  NO   OCC          E(Eh)            E(eV) 
   0   2.0000     -10.431815      -283.8641 
   1   2.0000     -10.431815      -283.8641 
   2   2.0000     -10.429852      -283.8107 
   3   2.0000     -10.429852      -283.8107 
   4   2.0000     -10.429775      -283.8086 
   5   2.0000     -10.429775      -283.8086 
   6   2.0000     -10.429717      -283.8070 
   7   2.0000     -10.429714      -283.8069 
   8   2.0000     -10.429681      -283.8061 
   9   2.0000     -10.429681      -283.8060 
  10   2.0000     -10.429650      -283.8052 
  11   2.0000     -10.429617      -283.8043 
  12   2.0000     -10.429581      -283.8033 
  13   2.0000     -10.429553      -283.8026 
  14   2.0000     -10.429522      -283.8017 
  15   2.0000     -10.429480      -283.8006 
  16   2.0000     -10.429442      -283.7996 
  17   2.0000     -10.429404      -283.7985 
  18   2.0000     -10.429365      -283.7974 
  19   2.0000     -10.429326      -283.7964 
  20   2.0000     -10.423976      -283.6508 
  21   2.0000     -10.423976      -283.6508 
  22   2.0000      -0.903185       -24.5769 
  23   2.0000      -0.899310       -24.4715 
  24   2.0000      -0.892747       -24.2929 
  25   2.0000      -0.883565       -24.0430 
  26   2.0000      -0.871839       -23.7240 
  27   2.0000      -0.857612       -23.3368 
  28   2.0000      -0.841042       -22.8859 
  29   2.0000      -0.822207       -22.3734 
  30   2.0000      -0.801285       -21.8041 
  31   2.0000      -0.778597       -21.1867 
  32   2.0000      -0.754403       -20.5283 
  33   2.0000      -0.729289       -19.8450 
  34   2.0000      -0.703989       -19.1565 
  35   2.0000      -0.679891       -18.5008 
  36   2.0000      -0.659276       -17.9398 
  37   2.0000      -0.645790       -17.5728 
  38   2.0000      -0.644501       -17.5378 
  39   2.0000      -0.643542       -17.5117 
  40   2.0000      -0.639974       -17.4146 
  41   2.0000      -0.637984       -17.3604 
  42   2.0000      -0.634984       -17.2788 
  43   2.0000      -0.634405       -17.2631 
  44   2.0000      -0.546577       -14.8731 
  45   2.0000      -0.542996       -14.7757 
  46   2.0000      -0.536964       -14.6115 
  47   2.0000      -0.528624       -14.3846 
  48   2.0000      -0.518160       -14.0999 
  49   2.0000      -0.505771       -13.7627 
  50   2.0000      -0.491781       -13.3821 
  51   2.0000      -0.488472       -13.2920 
  52   2.0000      -0.484862       -13.1938 
  53   2.0000      -0.483380       -13.1535 
  54   2.0000      -0.476501       -12.9663 
  55   2.0000      -0.474567       -12.9136 
  56   2.0000      -0.469390       -12.7728 
  57   2.0000      -0.461317       -12.5531 
  58   2.0000      -0.460370       -12.5273 
  59   2.0000      -0.446880       -12.1602 
  60   2.0000      -0.446300       -12.1445 
  61   2.0000      -0.443973       -12.0811 
  62   2.0000      -0.430738       -11.7210 
  63   2.0000      -0.427832       -11.6419 
  64   2.0000      -0.420124       -11.4322 
  65   2.0000      -0.415111       -11.2958 
  66   2.0000      -0.412629       -11.2282 
  67   2.0000      -0.402784       -10.9603 
  68   2.0000      -0.398929       -10.8554 
  69   2.0000      -0.391063       -10.6414 
  70   2.0000      -0.390455       -10.6248 
  71   2.0000      -0.387274       -10.5383 
  72   2.0000      -0.381634       -10.3848 
  73   2.0000      -0.378117       -10.2891 
  74   2.0000      -0.375321       -10.2130 
  75   2.0000      -0.371447       -10.1076 
  76   2.0000      -0.370522       -10.0824 
  77   2.0000      -0.367738       -10.0067 
  78   2.0000      -0.367190        -9.9917 
  79   2.0000      -0.365917        -9.9571 
  80   2.0000      -0.365262        -9.9393 
  81   2.0000      -0.365048        -9.9335 
  82   2.0000      -0.364767        -9.9258 
  83   2.0000      -0.364664        -9.9230 
  84   2.0000      -0.363784        -9.8991 
  85   2.0000      -0.363711        -9.8971 
  86   2.0000      -0.363069        -9.8796 
  87   2.0000      -0.341225        -9.2852 
  88   2.0000      -0.326521        -8.8851 
  89   0.0000       0.126132         3.4322 
  90   0.0000       0.129131         3.5138 
  91   0.0000       0.133747         3.6394 
  92   0.0000       0.139014         3.7828 
  93   0.0000       0.143604         3.9077 
  94   0.0000       0.146859         3.9962 
  95   0.0000       0.150134         4.0853 
  96   0.0000       0.156004         4.2451 
  97   0.0000       0.162630         4.4254 
  98   0.0000       0.166028         4.5179 
  99   0.0000       0.167944         4.5700 
 100   0.0000       0.170559         4.6412 
 101   0.0000       0.176635         4.8065 
 102   0.0000       0.176673         4.8075 
 103   0.0000       0.179792         4.8924 
 104   0.0000       0.186896         5.0857 
 105   0.0000       0.188311         5.1242 
 106   0.0000       0.194624         5.2960 
 107   0.0000       0.201950         5.4953 
 108   0.0000       0.202340         5.5059 
 109   0.0000       0.206171         5.6102 
 110   0.0000       0.209459         5.6997 
 111   0.0000       0.209943         5.7128 
 112   0.0000       0.216071         5.8796 
 113   0.0000       0.219390         5.9699 
 114   0.0000       0.224989         6.1223 
 115   0.0000       0.225746         6.1428 
 116   0.0000       0.227163         6.1814 
 117   0.0000       0.231594         6.3020 
 118   0.0000       0.231792         6.3074 
 119   0.0000       0.233733         6.3602 
 120   0.0000       0.235060         6.3963 
 121   0.0000       0.236800         6.4436 
 122   0.0000       0.238291         6.4842 
 123   0.0000       0.239549         6.5184 
 124   0.0000       0.241784         6.5793 
 125   0.0000       0.242283         6.5929 
 126   0.0000       0.243902         6.6369 
 127   0.0000       0.244016         6.6400 
 128   0.0000       0.248037         6.7494 
 129   0.0000       0.248357         6.7581 
 130   0.0000       0.249253         6.7825 
 131   0.0000       0.249440         6.7876 
 132   0.0000       0.250636         6.8201 
 133   0.0000       0.252179         6.8622 
 134   0.0000       0.252887         6.8814 
 135   0.0000       0.253958         6.9105 
 136   0.0000       0.254237         6.9181 
 137   0.0000       0.254714         6.9311 
 138   0.0000       0.255463         6.9515 
 139   0.0000       0.255974         6.9654 
 140   0.0000       0.263184         7.1616 
 141   0.0000       0.268543         7.3074 
 142   0.0000       0.269754         7.3404 
 143   0.0000       0.277023         7.5382 
 144   0.0000       0.279626         7.6090 
 145   0.0000       0.285394         7.7660 
 146   0.0000       0.300162         8.1678 
 147   0.0000       0.301072         8.1926 
 148   0.0000       0.305256         8.3064 
 149   0.0000       0.311615         8.4795 
 150   0.0000       0.317092         8.6285 
 151   0.0000       0.330440         8.9917 
 152   0.0000       0.345414         9.3992 
 153   0.0000       0.349272         9.5042 
 154   0.0000       0.392021        10.6674 
 155   0.0000       0.395293        10.7565 
 156   0.0000       0.427454        11.6316 
 157   0.0000       0.452393        12.3102 
 158   0.0000       0.480372        13.0716 
 159   0.0000       0.491283        13.3685 
 160   0.0000       0.499604        13.5949 
 161   0.0000       0.508583        13.8392 
 162   0.0000       0.526513        14.3272 
 163   0.0000       0.534195        14.5362 
 164   0.0000       0.538251        14.6466 
 165   0.0000       0.541510        14.7352 
 166   0.0000       0.541545        14.7362 
 167   0.0000       0.558575        15.1996 
 168   0.0000       0.559109        15.2141 
 169   0.0000       0.562831        15.3154 
 170   0.0000       0.565799        15.3962 
 171   0.0000       0.567346        15.4383 
 172   0.0000       0.569246        15.4900 
 173   0.0000       0.570528        15.5249 
 174   0.0000       0.573287        15.5999 
 175   0.0000       0.574440        15.6313 
 176   0.0000       0.578471        15.7410 
 177   0.0000       0.583690        15.8830 
 178   0.0000       0.597015        16.2456 
 179   0.0000       0.604719        16.4552 
 180   0.0000       0.612624        16.6703 
 181   0.0000       0.618078        16.8188 
 182   0.0000       0.625709        17.0264 
 183   0.0000       0.630911        17.1680 
 184   0.0000       0.645924        17.5765 
 185   0.0000       0.646186        17.5836 
 186   0.0000       0.651686        17.7333 
 187   0.0000       0.661398        17.9975 
 188   0.0000       0.676324        18.4037 
 189   0.0000       0.686376        18.6772 
 190   0.0000       0.695984        18.9387 
 191   0.0000       0.700512        19.0619 
 192   0.0000       0.708726        19.2854 
 193   0.0000       0.715559        19.4714 
 194   0.0000       0.716724        19.5030 
 195   0.0000       0.722053        19.6481 
 196   0.0000       0.731061        19.8932 
 197   0.0000       0.731912        19.9163 
 198   0.0000       0.734752        19.9936 
 199   0.0000       0.737793        20.0764 
 200   0.0000       0.749149        20.3854 
 201   0.0000       0.753306        20.4985 
 202   0.0000       0.765545        20.8315 
 203   0.0000       0.769787        20.9470 
 204   0.0000       0.775958        21.1149 
 205   0.0000       0.777758        21.1639 
 206   0.0000       0.794662        21.6239 
 207   0.0000       0.795494        21.6465 
 208   0.0000       0.823779        22.4162 
 209   0.0000       0.827086        22.5061 
 210   0.0000       0.841604        22.9012 
 211   0.0000       0.867884        23.6163 
 212   0.0000       0.871170        23.7057 
 213   0.0000       0.900866        24.5138 
 214   0.0000       0.914977        24.8978 
 215   0.0000       0.915668        24.9166 
 216   0.0000       0.919483        25.0204 
 217   0.0000       0.920802        25.0563 
 218   0.0000       0.926094        25.2003 
 219   0.0000       0.927996        25.2521 
 220   0.0000       0.935138        25.4464 
 221   0.0000       0.947104        25.7720 
 222   0.0000       0.954831        25.9823 
 223   0.0000       0.963649        26.2222 
 224   0.0000       0.984173        26.7807 
 225   0.0000       0.989057        26.9136 
 226   0.0000       1.007492        27.4153 
 227   0.0000       1.008496        27.4426 
 228   0.0000       1.014630        27.6095 
 229   0.0000       1.017567        27.6894 
 230   0.0000       1.031001        28.0550 
 231   0.0000       1.031471        28.0677 
 232   0.0000       1.032816        28.1044 
 233   0.0000       1.042362        28.3641 
 234   0.0000       1.050635        28.5892 
 235   0.0000       1.050879        28.5959 
 236   0.0000       1.055923        28.7331 
 237   0.0000       1.056024        28.7359 
 238   0.0000       1.056265        28.7424 
 239   0.0000       1.056350        28.7448 
 240   0.0000       1.057044        28.7636 
 241   0.0000       1.057998        28.7896 
 242   0.0000       1.059502        28.8305 
 243   0.0000       1.060259        28.8511 
 244   0.0000       1.062009        28.8987 
 245   0.0000       1.062847        28.9215 
 246   0.0000       1.065999        29.0073 
 247   0.0000       1.067235        29.0410 
 248   0.0000       1.069107        29.0919 
 249   0.0000       1.069471        29.1018 
 250   0.0000       1.070863        29.1397 
 251   0.0000       1.077076        29.3087 
 252   0.0000       1.078043        29.3350 
 253   0.0000       1.080286        29.3961 
 254   0.0000       1.080358        29.3980 
 255   0.0000       1.085562        29.5396 
 256   0.0000       1.089793        29.6548 
 257   0.0000       1.091158        29.6919 
 258   0.0000       1.092084        29.7171 
 259   0.0000       1.092854        29.7381 
 260   0.0000       1.096040        29.8248 
 261   0.0000       1.096848        29.8467 
 262   0.0000       1.103325        30.0230 
 263   0.0000       1.104007        30.0416 
 264   0.0000       1.104265        30.0486 
 265   0.0000       1.124028        30.5864 
 266   0.0000       1.175088        31.9758 
 267   0.0000       1.186862        32.2962 
 268   0.0000       1.233930        33.5770 
 269   0.0000       1.267359        34.4866 
 270   0.0000       1.280656        34.8484 
 271   0.0000       1.313939        35.7541 
 272   0.0000       1.338505        36.4226 
 273   0.0000       1.357827        36.9484 
 274   0.0000       1.358002        36.9531 
 275   0.0000       1.375243        37.4223 
 276   0.0000       1.390777        37.8450 
 277   0.0000       1.404498        38.2183 
 278   0.0000       1.416863        38.5548 
 279   0.0000       1.422137        38.6983 
 280   0.0000       1.427414        38.8419 
 281   0.0000       1.437038        39.1038 
 282   0.0000       1.448514        39.4161 
 283   0.0000       1.466060        39.8935 
 284   0.0000       1.493617        40.6434 
 285   0.0000       1.501066        40.8461 
 286   0.0000       1.509440        41.0739 
 287   0.0000       1.526925        41.5498 
 288   0.0000       1.530841        41.6563 
 289   0.0000       1.544753        42.0349 
 290   0.0000       1.551563        42.2202 
 291   0.0000       1.560463        42.4624 
 292   0.0000       1.605955        43.7003 
 293   0.0000       1.606434        43.7133 
 294   0.0000       1.649517        44.8856 
 295   0.0000       1.649611        44.8882 
 296   0.0000       1.659105        45.1465 
 297   0.0000       1.683221        45.8028 
 298   0.0000       1.701739        46.3067 
 299   0.0000       1.722113        46.8611 
 300   0.0000       1.749472        47.6055 
 301   0.0000       1.750587        47.6359 
 302   0.0000       1.775510        48.3141 
 303   0.0000       1.805950        49.1424 
 304   0.0000       1.814571        49.3770 
 305   0.0000       1.826965        49.7143 
 306   0.0000       1.845012        50.2053 
 307   0.0000       1.866818        50.7987 
 308   0.0000       1.871058        50.9141 
 309   0.0000       1.887681        51.3664 
 310   0.0000       1.894847        51.5614 
 311   0.0000       1.917571        52.1798 
 312   0.0000       1.930067        52.5198 
 313   0.0000       1.931264        52.5524 
 314   0.0000       1.939931        52.7882 
 315   0.0000       1.948468        53.0205 
 316   0.0000       1.953179        53.1487 
 317   0.0000       1.958019        53.2804 
 318   0.0000       1.962377        53.3990 
 319   0.0000       1.966372        53.5077 
 320   0.0000       1.969332        53.5883 
 321   0.0000       1.977368        53.8069 
 322   0.0000       1.980191        53.8837 
 323   0.0000       1.985494        54.0280 
 324   0.0000       1.987521        54.0832 
 325   0.0000       1.992405        54.2161 
 326   0.0000       1.997764        54.3619 
 327   0.0000       2.001939        54.4755 
 328   0.0000       2.009475        54.6806 
 329   0.0000       2.009494        54.6811 
 330   0.0000       2.019249        54.9466 
 331   0.0000       2.029316        55.2205 
 332   0.0000       2.034618        55.3648 
 333   0.0000       2.044053        55.6215 
 334   0.0000       2.051745        55.8308 
 335   0.0000       2.060908        56.0802 
 336   0.0000       2.072588        56.3980 
 337   0.0000       2.073405        56.4202 
 338   0.0000       2.081360        56.6367 
 339   0.0000       2.088262        56.8245 
 340   0.0000       2.093037        56.9544 
 341   0.0000       2.095350        57.0174 
 342   0.0000       2.107264        57.3416 
 343   0.0000       2.107713        57.3538 
 344   0.0000       2.116697        57.5983 
 345   0.0000       2.145708        58.3877 
 346   0.0000       2.160557        58.7917 
 347   0.0000       2.174990        59.1845 
 348   0.0000       2.203549        59.9616 
 349   0.0000       2.228506        60.6407 
 350   0.0000       2.236841        60.8675 
 351   0.0000       2.251128        61.2563 
 352   0.0000       2.268697        61.7344 
 353   0.0000       2.294086        62.4253 
 354   0.0000       2.303477        62.6808 
 355   0.0000       2.317296        63.0568 
 356   0.0000       2.333981        63.5109 
 357   0.0000       2.335301        63.5468 
 358   0.0000       2.357319        64.1459 
 359   0.0000       2.363923        64.3256 
 360   0.0000       2.365462        64.3675 
 361   0.0000       2.395055        65.1727 
 362   0.0000       2.399419        65.2915 
 363   0.0000       2.411246        65.6133 
 364   0.0000       2.426288        66.0226 
 365   0.0000       2.431995        66.1779 
 366   0.0000       2.456342        66.8405 
 367   0.0000       2.462227        67.0006 
 368   0.0000       2.475923        67.3733 
 369   0.0000       2.484618        67.6099 
 370   0.0000       2.489522        67.7433 
 371   0.0000       2.509523        68.2876 
 372   0.0000       2.513060        68.3838 
 373   0.0000       2.529622        68.8345 
 374   0.0000       2.531497        68.8855 
 375   0.0000       2.542988        69.1982 
 376   0.0000       2.543418        69.2099 
 377   0.0000       2.544601        69.2421 
 378   0.0000       2.592703        70.5510 
 379   0.0000       2.594831        70.6089 
 380   0.0000       2.606660        70.9308 
 381   0.0000       2.613294        71.1114 
 382   0.0000       2.615443        71.1698 
 383   0.0000       2.627345        71.4937 
 384   0.0000       2.627353        71.4939 
 385   0.0000       2.640370        71.8481 
 386   0.0000       2.649004        72.0831 
 387   0.0000       2.653315        72.2004 
 388   0.0000       2.656039        72.2745 
 389   0.0000       2.687414        73.1283 
 390   0.0000       2.726424        74.1898 
 391   0.0000       2.764294        75.2203 
 392   0.0000       2.803907        76.2982 
 393   0.0000       2.838856        77.2492 
 394   0.0000       2.873354        78.1879 
 395   0.0000       2.890433        78.6527 
 396   0.0000       2.911056        79.2139 
 397   0.0000       2.916564        79.3637 
 398   0.0000       2.934446        79.8503 
 399   0.0000       2.935747        79.8857 
 400   0.0000      13.493884       367.1873 
 401   0.0000      13.524558       368.0219 
 402   0.0000      13.572270       369.3202 
 403   0.0000      13.625934       370.7805 
 404   0.0000      13.679202       372.2300 
 405   0.0000      13.730475       373.6252 
 406   0.0000      13.779252       374.9525 
 407   0.0000      13.824995       376.1972 
 408   0.0000      13.866602       377.3294 
 409   0.0000      13.902806       378.3146 
 410   0.0000      13.932835       379.1317 
 411   0.0000      13.956225       379.7682 
 412   0.0000      13.973682       380.2432 
 413   0.0000      13.986549       380.5934 
 414   0.0000      13.998360       380.9147 
 415   0.0000      14.013985       381.3399 
 416   0.0000      14.036051       381.9404 
 417   0.0000      14.063895       382.6980 
 418   0.0000      14.093174       383.4948 
 419   0.0000      14.116786       384.1373 
 420   0.0000      14.130244       384.5035 
 421   0.0000      14.135113       384.6360 

                    ********************************
                    * MULLIKEN POPULATION ANALYSIS *
                    ********************************

-----------------------
MULLIKEN ATOMIC CHARGES
-----------------------
   0 C :   -0.398712
   1 C :   -0.398828
   2 C :   -0.398831
   3 C :   -0.398777
   4 C :   -0.398837
   5 C :   -0.398808
   6 C :   -0.398811
   7 C :   -0.398835
   8 C :   -0.398779
   9 C :   -0.398828
  10 C :   -0.398830
  11 C :   -0.398711
  12 C :   -0.398377
  13 C :   -0.398331
  14 C :   -0.393876
  15 C :   -0.407134
  16 C :   -0.635119
  17 C :   -0.398376
  18 C :   -0.398332
  19 C :   -0.393875
  20 C :   -0.407134
  21 C :   -0.635119
  22 H :    0.199406
  23 H :    0.199406
  24 H :    0.199428
  25 H :    0.199428
  26 H :    0.199438
  27 H :    0.199438
  28 H :    0.199404
  29 H :    0.199404
  30 H :    0.199421
  31 H :    0.199421
  32 H :    0.199421
  33 H :    0.199422
  34 H :    0.199421
  35 H :    0.199421
  36 H :    0.199421
  37 H :    0.199421
  38 H :    0.199404
  39 H :    0.199404
  40 H :    0.199438
  41 H :    0.199438
  42 H :    0.199428
  43 H :    0.199428
  44 H :    0.199406
  45 H :    0.199406
  46 H :    0.199470
  47 H :    0.199470
  48 H :    0.199220
  49 H :    0.199220
  50 H :    0.198757
  51 H :    0.198757
  52 H :    0.203185
  53 H :    0.203185
  54 H :    0.207405
  55 H :    0.216520
  56 H :    0.207405
  57 H :    0.199470
  58 H :    0.199470
  59 H :    0.199220
  60 H :    0.199220
  61 H :    0.198757
  62 H :    0.198757
  63 H :    0.203185
  64 H :    0.203185
  65 H :    0.207405
  66 H :    0.216520
  67 H :    0.207405
Sum of atomic charges:    0.0000000

--------------------------------
MULLIKEN REDUCED ORBITAL CHARGES
--------------------------------
  0 C s       :     3.325833  s :     3.325833
      pz      :     1.107219  p :     3.029982
      px      :     0.928813
      py      :     0.993950
      dz2     :     0.006915  d :     0.042898
      dxz     :     0.005680
      dyz     :     0.012747
      dx2y2   :     0.009051
      dxy     :     0.008504
  1 C s       :     3.325940  s :     3.325940
      pz      :     1.107325  p :     3.029993
      px      :     0.928894
      py      :     0.993774
      dz2     :     0.006915  d :     0.042895
      dxz     :     0.005674
      dyz     :     0.012754
      dx2y2   :     0.009046
      dxy     :     0.008506
  2 C s       :     3.325967  s :     3.325967
      pz      :     1.107389  p :     3.029973
      px      :     0.928820
      py      :     0.993764
      dz2     :     0.006915  d :     0.042891
      dxz     :     0.005674
      dyz     :     0.012754
      dx2y2   :     0.009050
      dxy     :     0.008498
  3 C s       :     3.325883  s :     3.325883
      pz      :     1.107212  p :     3.029996
      px      :     0.929053
      py      :     0.993731
      dz2     :     0.006914  d :     0.042899
      dxz     :     0.005694
      dyz     :     0.012733
      dx2y2   :     0.009051
      dxy     :     0.008507
  4 C s       :     3.325969  s :     3.325969
      pz      :     1.107327  p :     3.029976
      px      :     0.929070
      py      :     0.993578
      dz2     :     0.006915  d :     0.042892
      dxz     :     0.005699
      dyz     :     0.012728
      dx2y2   :     0.009053
      dxy     :     0.008496
  5 C s       :     3.325921  s :     3.325921
      pz      :     1.107319  p :     3.029992
      px      :     0.929088
      py      :     0.993586
      dz2     :     0.006915  d :     0.042895
      dxz     :     0.005695
      dyz     :     0.012732
      dx2y2   :     0.009055
      dxy     :     0.008497
  6 C s       :     3.325923  s :     3.325923
      pz      :     1.107319  p :     3.029993
      px      :     0.929088
      py      :     0.993586
      dz2     :     0.006915  d :     0.042895
      dxz     :     0.005695
      dyz     :     0.012732
      dx2y2   :     0.009055
      dxy     :     0.008497
  7 C s       :     3.325968  s :     3.325968
      pz      :     1.107328  p :     3.029975
      px      :     0.929070
      py      :     0.993578
      dz2     :     0.006915  d :     0.042892
      dxz     :     0.005699
      dyz     :     0.012728
      dx2y2   :     0.009053
      dxy     :     0.008496
  8 C s       :     3.325885  s :     3.325885
      pz      :     1.107211  p :     3.029996
      px      :     0.929053
      py      :     0.993731
      dz2     :     0.006914  d :     0.042899
      dxz     :     0.005694
      dyz     :     0.012733
      dx2y2   :     0.009051
      dxy     :     0.008507
  9 C s       :     3.325965  s :     3.325965
      pz      :     1.107389  p :     3.029973
      px      :     0.928820
      py      :     0.993763
      dz2     :     0.006915  d :     0.042891
      dxz     :     0.005674
      dyz     :     0.012754
      dx2y2   :     0.009050
      dxy     :     0.008498
 10 C s       :     3.325942  s :     3.325942
      pz      :     1.107325  p :     3.029992
      px      :     0.928894
      py      :     0.993774
      dz2     :     0.006915  d :     0.042895
      dxz     :     0.005674
      dyz     :     0.012754
      dx2y2   :     0.009046
      dxy     :     0.008506
 11 C s       :     3.325832  s :     3.325832
      pz      :     1.107218  p :     3.029981
      px      :     0.928813
      py      :     0.993950
      dz2     :     0.006915  d :     0.042898
      dxz     :     0.005680
      dyz     :     0.012747
      dx2y2   :     0.009051
      dxy     :     0.008504
 12 C s       :     3.325879  s :     3.325879
      pz      :     1.107340  p :     3.029603
      px      :     0.928795
      py      :     0.993468
      dz2     :     0.006919  d :     0.042895
      dxz     :     0.005690
      dyz     :     0.012735
      dx2y2   :     0.009054
      dxy     :     0.008497
 13 C s       :     3.325744  s :     3.325744
      pz      :     1.106549  p :     3.029713
      px      :     0.928960
      py      :     0.994204
      dz2     :     0.006915  d :     0.042875
      dxz     :     0.005688
      dyz     :     0.012736
      dx2y2   :     0.009055
      dxy     :     0.008482
 14 C s       :     3.324917  s :     3.324917
      pz      :     1.105971  p :     3.026073
      px      :     0.927404
      py      :     0.992697
      dz2     :     0.006905  d :     0.042885
      dxz     :     0.005699
      dyz     :     0.012727
      dx2y2   :     0.009085
      dxy     :     0.008470
 15 C s       :     3.328043  s :     3.328043
      pz      :     1.112718  p :     3.036120
      px      :     0.928275
      py      :     0.995126
      dz2     :     0.006997  d :     0.042971
      dxz     :     0.005730
      dyz     :     0.012570
      dx2y2   :     0.008989
      dxy     :     0.008685
 16 C s       :     3.382952  s :     3.382952
      pz      :     1.119952  p :     3.215748
      px      :     0.969806
      py      :     1.125990
      dz2     :     0.007078  d :     0.036418
      dxz     :     0.005719
      dyz     :     0.008475
      dx2y2   :     0.006535
      dxy     :     0.008612
 17 C s       :     3.325878  s :     3.325878
      pz      :     1.107340  p :     3.029603
      px      :     0.928794
      py      :     0.993468
      dz2     :     0.006919  d :     0.042895
      dxz     :     0.005690
      dyz     :     0.012735
      dx2y2   :     0.009054
      dxy     :     0.008497
 18 C s       :     3.325744  s :     3.325744
      pz      :     1.106549  p :     3.029713
      px      :     0.928960
      py      :     0.994204
      dz2     :     0.006915  d :     0.042875
      dxz     :     0.005688
      dyz     :     0.012736
      dx2y2   :     0.009055
      dxy     :     0.008482
 19 C s       :     3.324917  s :     3.324917
      pz      :     1.105971  p :     3.026073
      px      :     0.927404
      py      :     0.992698
      dz2     :     0.006905  d :     0.042885
      dxz     :     0.005699
      dyz     :     0.012727
      dx2y2   :     0.009085
      dxy     :     0.008470
 20 C s       :     3.328043  s :     3.328043
      pz      :     1.112718  p :     3.036120
      px      :     0.928275
      py      :     0.995126
      dz2     :     0.006997  d :     0.042971
      dxz     :     0.005730
      dyz     :     0.012570
      dx2y2   :     0.008989
      dxy     :     0.008685
 21 C s       :     3.382952  s :     3.382952
      pz      :     1.119952  p :     3.215748
      px      :     0.969806
      py      :     1.125990
      dz2     :     0.007078  d :     0.036418
      dxz     :     0.005719
      dyz     :     0.008475
      dx2y2   :     0.006535
      dxy     :     0.008612
 22 H s       :     0.800594  s :     0.800594
 23 H s       :     0.800594  s :     0.800594
 24 H s       :     0.800572  s :     0.800572
 25 H s       :     0.800572  s :     0.800572
 26 H s       :     0.800562  s :     0.800562
 27 H s       :     0.800562  s :     0.800562
 28 H s       :     0.800596  s :     0.800596
 29 H s       :     0.800596  s :     0.800596
 30 H s       :     0.800579  s :     0.800579
 31 H s       :     0.800579  s :     0.800579
 32 H s       :     0.800579  s :     0.800579
 33 H s       :     0.800578  s :     0.800578
 34 H s       :     0.800579  s :     0.800579
 35 H s       :     0.800579  s :     0.800579
 36 H s       :     0.800579  s :     0.800579
 37 H s       :     0.800579  s :     0.800579
 38 H s       :     0.800596  s :     0.800596
 39 H s       :     0.800596  s :     0.800596
 40 H s       :     0.800562  s :     0.800562
 41 H s       :     0.800562  s :     0.800562
 42 H s       :     0.800572  s :     0.800572
 43 H s       :     0.800572  s :     0.800572
 44 H s       :     0.800594  s :     0.800594
 45 H s       :     0.800594  s :     0.800594
 46 H s       :     0.800530  s :     0.800530
 47 H s       :     0.800530  s :     0.800530
 48 H s       :     0.800780  s :     0.800780
 49 H s       :     0.800780  s :     0.800780
 50 H s       :     0.801243  s :     0.801243
 51 H s       :     0.801243  s :     0.801243
[...]
  5 C s       :     2.916631  s :     2.916631
      pz      :     1.107587  p :     3.234064
      px      :     1.048559
      py      :     1.077918
      dz2     :     0.013401  d :     0.086575
      dxz     :     0.010816
      dyz     :     0.022547
      dx2y2   :     0.020811
      dxy     :     0.018999
  6 C s       :     2.916631  s :     2.916631
      pz      :     1.107587  p :     3.234064
      px      :     1.048559
      py      :     1.077918
      dz2     :     0.013401  d :     0.086574
      dxz     :     0.010816
      dyz     :     0.022547
      dx2y2   :     0.020811
      dxy     :     0.018999
  7 C s       :     2.916621  s :     2.916621
      pz      :     1.107585  p :     3.234089
      px      :     1.048560
      py      :     1.077943
      dz2     :     0.013402  d :     0.086569
      dxz     :     0.010821
      dyz     :     0.022541
      dx2y2   :     0.020807
      dxy     :     0.018998
  8 C s       :     2.916603  s :     2.916603
      pz      :     1.107566  p :     3.234098
      px      :     1.048550
      py      :     1.077982
      dz2     :     0.013403  d :     0.086584
      dxz     :     0.010812
      dyz     :     0.022547
      dx2y2   :     0.020799
      dxy     :     0.019022
  9 C s       :     2.916643  s :     2.916643
      pz      :     1.107603  p :     3.234058
      px      :     1.048417
      py      :     1.078038
      dz2     :     0.013400  d :     0.086565
      dxz     :     0.010780
      dyz     :     0.022584
      dx2y2   :     0.020794
      dxy     :     0.019006
 10 C s       :     2.916630  s :     2.916630
      pz      :     1.107587  p :     3.234071
      px      :     1.048457
      py      :     1.078026
      dz2     :     0.013402  d :     0.086574
      dxz     :     0.010779
      dyz     :     0.022583
      dx2y2   :     0.020785
      dxy     :     0.019025
 11 C s       :     2.916616  s :     2.916616
      pz      :     1.107566  p :     3.234109
      px      :     1.048447
      py      :     1.078096
      dz2     :     0.013404  d :     0.086581
      dxz     :     0.010788
      dyz     :     0.022572
      dx2y2   :     0.020797
      dxy     :     0.019020
 12 C s       :     2.916614  s :     2.916614
      pz      :     1.107636  p :     3.234023
      px      :     1.048532
      py      :     1.077855
      dz2     :     0.013406  d :     0.086563
      dxz     :     0.010806
      dyz     :     0.022547
      dx2y2   :     0.020795
      dxy     :     0.019009
 13 C s       :     2.916714  s :     2.916714
      pz      :     1.107467  p :     3.234514
      px      :     1.049045
      py      :     1.078001
      dz2     :     0.013400  d :     0.086518
      dxz     :     0.010788
      dyz     :     0.022552
      dx2y2   :     0.020818
      dxy     :     0.018960
 14 C s       :     2.918876  s :     2.918876
      pz      :     1.107384  p :     3.233846
      px      :     1.048965
      py      :     1.077497
      dz2     :     0.013389  d :     0.086489
      dxz     :     0.010843
      dyz     :     0.022528
      dx2y2   :     0.020754
      dxy     :     0.018974
 15 C s       :     2.918912  s :     2.918912
      pz      :     1.109185  p :     3.239374
      px      :     1.051112
      py      :     1.079077
      dz2     :     0.013473  d :     0.086543
      dxz     :     0.010781
      dyz     :     0.022280
      dx2y2   :     0.020684
      dxy     :     0.019325
 16 C s       :     2.960999  s :     2.960999
      pz      :     1.130624  p :     3.333967
      px      :     1.074467
      py      :     1.128876
      dz2     :     0.012549  d :     0.067180
      dxz     :     0.011015
      dyz     :     0.013778
      dx2y2   :     0.013730
      dxy     :     0.016108
 17 C s       :     2.916614  s :     2.916614
      pz      :     1.107636  p :     3.234023
      px      :     1.048532
      py      :     1.077855
      dz2     :     0.013406  d :     0.086563
      dxz     :     0.010806
      dyz     :     0.022547
      dx2y2   :     0.020795
      dxy     :     0.019009
 18 C s       :     2.916714  s :     2.916714
      pz      :     1.107467  p :     3.234514
      px      :     1.049045
      py      :     1.078001
      dz2     :     0.013400  d :     0.086518
      dxz     :     0.010788
      dyz     :     0.022552
      dx2y2   :     0.020818
      dxy     :     0.018960
 19 C s       :     2.918876  s :     2.918876
      pz      :     1.107384  p :     3.233846
      px      :     1.048965
      py      :     1.077497
      dz2     :     0.013389  d :     0.086489
      dxz     :     0.010843
      dyz     :     0.022528
      dx2y2   :     0.020754
      dxy     :     0.018974
 20 C s       :     2.918912  s :     2.918912
      pz      :     1.109185  p :     3.239374
      px      :     1.051112
      py      :     1.079077
      dz2     :     0.013473  d :     0.086543
      dxz     :     0.010781
      dyz     :     0.022280
      dx2y2   :     0.020684
      dxy     :     0.019325
 21 C s       :     2.960999  s :     2.960999
      pz      :     1.130624  p :     3.333967
      px      :     1.074467
      py      :     1.128876
      dz2     :     0.012549  d :     0.067180
      dxz     :     0.011015
      dyz     :     0.013778
      dx2y2   :     0.013730
      dxy     :     0.016108
 22 H s       :     0.881353  s :     0.881353
 23 H s       :     0.881353  s :     0.881353
 24 H s       :     0.881352  s :     0.881352
 25 H s       :     0.881352  s :     0.881352
 26 H s       :     0.881354  s :     0.881354
 27 H s       :     0.881354  s :     0.881354
 28 H s       :     0.881352  s :     0.881352
 29 H s       :     0.881352  s :     0.881352
 30 H s       :     0.881351  s :     0.881351
 31 H s       :     0.881351  s :     0.881351
 32 H s       :     0.881357  s :     0.881357
 33 H s       :     0.881357  s :     0.881357
 34 H s       :     0.881357  s :     0.881357
 35 H s       :     0.881357  s :     0.881357
 36 H s       :     0.881351  s :     0.881351
 37 H s       :     0.881351  s :     0.881351
 38 H s       :     0.881352  s :     0.881352
 39 H s       :     0.881352  s :     0.881352
 40 H s       :     0.881354  s :     0.881354
 41 H s       :     0.881354  s :     0.881354
 42 H s       :     0.881352  s :     0.881352
 43 H s       :     0.881352  s :     0.881352
 44 H s       :     0.881353  s :     0.881353
 45 H s       :     0.881353  s :     0.881353
 46 H s       :     0.881313  s :     0.881313
 47 H s       :     0.881313  s :     0.881313
 48 H s       :     0.881368  s :     0.881368
 49 H s       :     0.881368  s :     0.881368
 50 H s       :     0.881758  s :     0.881758
 51 H s       :     0.881758  s :     0.881758
 52 H s       :     0.880968  s :     0.880968
 53 H s       :     0.880968  s :     0.880968
 54 H s       :     0.876892  s :     0.876892
 55 H s       :     0.874353  s :     0.874353
 56 H s       :     0.876892  s :     0.876892
 57 H s       :     0.881313  s :     0.881313
 58 H s       :     0.881313  s :     0.881313
 59 H s       :     0.881368  s :     0.881368
 60 H s       :     0.881368  s :     0.881368
 61 H s       :     0.881758  s :     0.881758
 62 H s       :     0.881758  s :     0.881758
 63 H s       :     0.880968  s :     0.880968
 64 H s       :     0.880968  s :     0.880968
 65 H s       :     0.876892  s :     0.876892
 66 H s       :     0.874353  s :     0.874353
 67 H s       :     0.876892  s :     0.876892


                      *****************************
                      * MAYER POPULATION ANALYSIS *
                      *****************************

  NA   - Mulliken gross atomic population
  ZA   - Total nuclear charge
  QA   - Mulliken gross atomic charge
  VA   - Mayer's total valence
  BVA  - Mayer's bonded valence
  FA   - Mayer's free valence

  ATOM       NA         ZA         QA         VA         BVA        FA
  0 C      6.3987     6.0000    -0.3987     3.7476     3.7476     0.0000
  1 C      6.3988     6.0000    -0.3988     3.7474     3.7474     0.0000
  2 C      6.3988     6.0000    -0.3988     3.7474     3.7474    -0.0000
  3 C      6.3988     6.0000    -0.3988     3.7474     3.7474     0.0000
  4 C      6.3988     6.0000    -0.3988     3.7475     3.7475     0.0000
  5 C      6.3988     6.0000    -0.3988     3.7474     3.7474     0.0000
  6 C      6.3988     6.0000    -0.3988     3.7474     3.7474    -0.0000
  7 C      6.3988     6.0000    -0.3988     3.7475     3.7475    -0.0000
  8 C      6.3988     6.0000    -0.3988     3.7474     3.7474     0.0000
  9 C      6.3988     6.0000    -0.3988     3.7474     3.7474     0.0000
 10 C      6.3988     6.0000    -0.3988     3.7474     3.7474     0.0000
 11 C      6.3987     6.0000    -0.3987     3.7476     3.7476     0.0000
 12 C      6.3984     6.0000    -0.3984     3.7471     3.7471    -0.0000
 13 C      6.3983     6.0000    -0.3983     3.7477     3.7477    -0.0000
 14 C      6.3939     6.0000    -0.3939     3.7368     3.7368     0.0000
 15 C      6.4071     6.0000    -0.4071     3.7564     3.7564     0.0000
 16 C      6.6351     6.0000    -0.6351     3.7444     3.7444    -0.0000
 17 C      6.3984     6.0000    -0.3984     3.7471     3.7471    -0.0000
 18 C      6.3983     6.0000    -0.3983     3.7477     3.7477    -0.0000
 19 C      6.3939     6.0000    -0.3939     3.7368     3.7368    -0.0000
 20 C      6.4071     6.0000    -0.4071     3.7564     3.7564    -0.0000
 21 C      6.6351     6.0000    -0.6351     3.7444     3.7444    -0.0000
 22 H      0.8006     1.0000     0.1994     0.9132     0.9132     0.0000
 23 H      0.8006     1.0000     0.1994     0.9132     0.9132     0.0000
 24 H      0.8006     1.0000     0.1994     0.9132     0.9132     0.0000
 25 H      0.8006     1.0000     0.1994     0.9132     0.9132     0.0000
 26 H      0.8006     1.0000     0.1994     0.9132     0.9132    -0.0000
 27 H      0.8006     1.0000     0.1994     0.9132     0.9132    -0.0000
 28 H      0.8006     1.0000     0.1994     0.9132     0.9132     0.0000
 29 H      0.8006     1.0000     0.1994     0.9132     0.9132     0.0000
 30 H      0.8006     1.0000     0.1994     0.9132     0.9132    -0.0000
 31 H      0.8006     1.0000     0.1994     0.9132     0.9132     0.0000
 32 H      0.8006     1.0000     0.1994     0.9132     0.9132     0.0000
 33 H      0.8006     1.0000     0.1994     0.9132     0.9132    -0.0000
 34 H      0.8006     1.0000     0.1994     0.9132     0.9132     0.0000
 35 H      0.8006     1.0000     0.1994     0.9132     0.9132     0.0000
 36 H      0.8006     1.0000     0.1994     0.9132     0.9132    -0.0000
 37 H      0.8006     1.0000     0.1994     0.9132     0.9132     0.0000
 38 H      0.8006     1.0000     0.1994     0.9132     0.9132    -0.0000
 39 H      0.8006     1.0000     0.1994     0.9132     0.9132     0.0000
 40 H      0.8006     1.0000     0.1994     0.9132     0.9132     0.0000
 41 H      0.8006     1.0000     0.1994     0.9132     0.9132    -0.0000
 42 H      0.8006     1.0000     0.1994     0.9132     0.9132     0.0000
 43 H      0.8006     1.0000     0.1994     0.9132     0.9132     0.0000
 44 H      0.8006     1.0000     0.1994     0.9132     0.9132    -0.0000
 45 H      0.8006     1.0000     0.1994     0.9132     0.9132     0.0000
 46 H      0.8005     1.0000     0.1995     0.9132     0.9132    -0.0000
 47 H      0.8005     1.0000     0.1995     0.9132     0.9132     0.0000
 48 H      0.8008     1.0000     0.1992     0.9132     0.9132    -0.0000
 49 H      0.8008     1.0000     0.1992     0.9132     0.9132     0.0000
 50 H      0.8012     1.0000     0.1988     0.9133     0.9133    -0.0000
 51 H      0.8012     1.0000     0.1988     0.9133     0.9133     0.0000
 52 H      0.7968     1.0000     0.2032     0.9106     0.9106    -0.0000
 53 H      0.7968     1.0000     0.2032     0.9106     0.9106     0.0000
 54 H      0.7926     1.0000     0.2074     0.9162     0.9162     0.0000
 55 H      0.7835     1.0000     0.2165     0.9153     0.9153     0.0000
 56 H      0.7926     1.0000     0.2074     0.9162     0.9162    -0.0000
 57 H      0.8005     1.0000     0.1995     0.9132     0.9132     0.0000
 58 H      0.8005     1.0000     0.1995     0.9132     0.9132    -0.0000
 59 H      0.8008     1.0000     0.1992     0.9132     0.9132     0.0000
 60 H      0.8008     1.0000     0.1992     0.9132     0.9132    -0.0000
 61 H      0.8012     1.0000     0.1988     0.9133     0.9133    -0.0000
 62 H      0.8012     1.0000     0.1988     0.9133     0.9133    -0.0000
 63 H      0.7968     1.0000     0.2032     0.9106     0.9106     0.0000
 64 H      0.7968     1.0000     0.2032     0.9106     0.9106    -0.0000
 65 H      0.7926     1.0000     0.2074     0.9162     0.9162    -0.0000
 66 H      0.7835     1.0000     0.2165     0.9153     0.9153    -0.0000
 67 H      0.7926     1.0000     0.2074     0.9162     0.9162    -0.0000

  Mayer bond orders larger than 0.100000
B(  0-C ,  1-C ) :   0.9902 B(  0-C , 17-C ) :   0.9903 B(  0-C , 22-H ) :   0.9191 
B(  0-C , 23-H ) :   0.9191 B(  1-C ,  2-C ) :   0.9901 B(  1-C , 24-H ) :   0.9191 
B(  1-C , 25-H ) :   0.9191 B(  2-C ,  3-C ) :   0.9902 B(  2-C , 26-H ) :   0.9192 
B(  2-C , 27-H ) :   0.9192 B(  3-C ,  4-C ) :   0.9902 B(  3-C , 28-H ) :   0.9191 
B(  3-C , 29-H ) :   0.9191 B(  4-C ,  5-C ) :   0.9901 B(  4-C , 30-H ) :   0.9192 
B(  4-C , 31-H ) :   0.9192 B(  5-C ,  6-C ) :   0.9901 B(  5-C , 32-H ) :   0.9191 
B(  5-C , 33-H ) :   0.9191 B(  6-C ,  7-C ) :   0.9901 B(  6-C , 34-H ) :   0.9191 
B(  6-C , 35-H ) :   0.9191 B(  7-C ,  8-C ) :   0.9902 B(  7-C , 36-H ) :   0.9192 
B(  7-C , 37-H ) :   0.9192 B(  8-C ,  9-C ) :   0.9902 B(  8-C , 38-H ) :   0.9191 
B(  8-C , 39-H ) :   0.9191 B(  9-C , 10-C ) :   0.9901 B(  9-C , 40-H ) :   0.9192 
B(  9-C , 41-H ) :   0.9192 B( 10-C , 11-C ) :   0.9902 B( 10-C , 42-H ) :   0.9191 
B( 10-C , 43-H ) :   0.9191 B( 11-C , 12-C ) :   0.9903 B( 11-C , 44-H ) :   0.9191 
B( 11-C , 45-H ) :   0.9191 B( 12-C , 13-C ) :   0.9900 B( 12-C , 46-H ) :   0.9191 
B( 12-C , 47-H ) :   0.9191 B( 13-C , 14-C ) :   0.9909 B( 13-C , 48-H ) :   0.9189 
B( 13-C , 49-H ) :   0.9189 B( 14-C , 15-C ) :   0.9862 B( 14-C , 50-H ) :   0.9190 
B( 14-C , 51-H ) :   0.9190 B( 15-C , 16-C ) :   0.9934 B( 15-C , 52-H ) :   0.9209 
B( 15-C , 53-H ) :   0.9209 B( 16-C , 54-H ) :   0.9297 B( 16-C , 55-H ) :   0.9320 
B( 16-C , 56-H ) :   0.9297 B( 17-C , 18-C ) :   0.9900 B( 17-C , 57-H ) :   0.9191 
B( 17-C , 58-H ) :   0.9191 B( 18-C , 19-C ) :   0.9909 B( 18-C , 59-H ) :   0.9189 
B( 18-C , 60-H ) :   0.9189 B( 19-C , 20-C ) :   0.9862 B( 19-C , 61-H ) :   0.9190 
B( 19-C , 62-H ) :   0.9190 B( 20-C , 21-C ) :   0.9934 B( 20-C , 63-H ) :   0.9209 
B( 20-C , 64-H ) :   0.9209 B( 21-C , 65-H ) :   0.9297 B( 21-C , 66-H ) :   0.9320 
B( 21-C , 67-H ) :   0.9297 

-------
TIMINGS
-------

Total SCF time: 0 days 0 hours 5 min 16 sec 

Total time                  ....     316.734 sec
Sum of individual times     ....     308.489 sec  ( 97.4%)

Fock matrix formation       ....     275.855 sec  ( 87.1%)
  Split-RI-J                ....      18.803 sec  (  6.8% of F)
  Chain of spheres X        ....     205.710 sec  ( 74.6% of F)
  XC integration            ....      38.059 sec  ( 13.8% of F)
    Basis function eval.    ....      11.441 sec  ( 30.1% of XC)
    Density eval.           ....       5.823 sec  ( 15.3% of XC)
    XC-Functional eval.     ....       3.294 sec  (  8.7% of XC)
    XC-Potential eval.      ....       3.675 sec  (  9.7% of XC)
Diagonalization             ....       1.524 sec  (  0.5%)
Density matrix formation    ....       0.138 sec  (  0.0%)
Population analysis         ....       1.068 sec  (  0.3%)
Initial guess               ....       0.144 sec  (  0.0%)
Orbital Transformation      ....       0.000 sec  (  0.0%)
Orbital Orthonormalization  ....       0.000 sec  (  0.0%)
DIIS solution               ....       2.087 sec  (  0.7%)
SOSCF solution              ....       1.483 sec  (  0.5%)
Grid generation             ....      26.190 sec  (  8.3%)

Maximum memory used throughout the entire SCF-calculation: 160.5 MB


-------------------------------------------------------------------------------
                          DFT DISPERSION CORRECTION                            
                                                                               
                              DFTD3 V3.1  Rev 1                                
                          USING Becke-Johnson damping                          
-------------------------------------------------------------------------------
The PBEh-3c composite method is recognized
Using three-body term ABC
Active option DFTDOPT                   ...         4   

molecular C6(AA) [au] = 30494.611909 


            DFT-D V3
 parameters
 s6 scaling factor         :     1.0000 
 a1 scaling factor         :     0.4860 
 s8 scaling factor         :     0.0000 
 a2 scaling factor         :     4.5000 
 Damping factor alpha9(ATM):    16.0000 
 ad hoc parameters k1-k3   :    16.0000     1.3333    -4.0000 

 Edisp/kcal,au: -22.351728248974  -0.035619742472 
 E6   /kcal   : -22.320608600 
 E8   /kcal   :  -0.000000000 
 E6(ABC)      :  -0.031119649 
 % E8         :   0.000000000 
 % E6(ABC)    :   0.139227038 

-------------------------   ----------------
Dispersion correction           -0.035619742
-------------------------   ----------------

------------------   -----------------
gCP correction             0.106619349
------------------   -----------------

-------------------------   --------------------
FINAL SINGLE POINT ENERGY      -864.199403009542
-------------------------   --------------------


                            ***************************************
                            *     ORCA property calculations      *
                            ***************************************

                                    ---------------------
                                    Active property flags
                                    ---------------------
   (+) Dipole Moment


------------------------------------------------------------------------------
                       ORCA ELECTRIC PROPERTIES CALCULATION
------------------------------------------------------------------------------

Dipole Moment Calculation                       ... on
Quadrupole Moment Calculation                   ... off
Polarizability Calculation                      ... off
GBWName                                         ... pbeh-3c.gbw
Electron density                                ... pbeh-3c.scfp
The origin for moment calculation is the CENTER OF MASS  = (-0.000000, -0.000000  0.000000)

-------------
DIPOLE MOMENT
-------------
                                X             Y             Z
Electronic contribution:      0.00000       0.00000       0.00000
Nuclear contribution   :     -0.00000       0.00000       0.00000
                        -----------------------------------------
Total Dipole Moment    :      0.00000       0.00000       0.00000
                        -----------------------------------------
Magnitude (a.u.)       :      0.00000
Magnitude (Debye)      :      0.00000



--------------------
Rotational spectrum 
--------------------
 
Rotational constants in cm-1:     0.125803     0.000804     0.000802 
Rotational constants in MHz :  3771.479325    24.116560    24.042373 

 Dipole components along the rotational axes: 
x,y,z [a.u.] :    -0.000001    -0.000000     0.000000 
x,y,z [Debye]:    -0.000003    -0.000000     0.000000 

 

Timings for individual modules:

Sum of individual times         ...      321.058 sec (=   5.351 min)
GTO integral calculation        ...        3.768 sec (=   0.063 min)   1.2 %
SCF iterations                  ...      317.290 sec (=   5.288 min)  98.8 %
                             ****ORCA TERMINATED NORMALLY****
TOTAL RUN TIME: 0 days 0 hours 5 minutes 25 seconds 885 msec
