
                                 *****************
                                 * O   R   C   A *
                                 *****************

                                            #,                                       
                                            ###                                      
                                            ####                                     
                                            #####                                    
                                            ######                                   
                                           ########,                                 
                                     ,,################,,,,,                         
                               ,,#################################,,                 
                          ,,##########################################,,             
                       ,#########################################, ''#####,          
                    ,#############################################,,   '####,        
                  ,##################################################,,,,####,       
                ,###########''''           ''''###############################       
              ,#####''   ,,,,##########,,,,          '''####'''          '####       
            ,##' ,,,,###########################,,,                        '##       
           ' ,,###''''                  '''############,,,                           
         ,,##''                                '''############,,,,        ,,,,,,###''
      ,#''                                            '''#######################'''  
     '                                                          ''''####''''         
             ,#######,   #######,   ,#######,      ##                                
            ,#'     '#,  ##    ##  ,#'     '#,    #''#        ######   ,####,        
            ##       ##  ##   ,#'  ##            #'  '#       #        #'  '#        
            ##       ##  #######   ##           ,######,      #####,   #    #        
            '#,     ,#'  ##    ##  '#,     ,#' ,#      #,         ##   #,  ,#        
             '#######'   ##     ##  '#######'  #'      '#     #####' # '####'        



                  #######################################################
                  #                        -***-                        #
                  #          Department of theory and spectroscopy      #
                  #    Directorship and core code : Frank Neese         #
                  #        Max Planck Institute fuer Kohlenforschung    #
                  #                Kaiser Wilhelm Platz 1               #
                  #                 D-45470 Muelheim/Ruhr               #
                  #                      Germany                        #
                  #                                                     #
                  #                  All rights reserved                #
                  #                        -***-                        #
                  #######################################################


                         Program Version 5.0.3 -  RELEASE  -


 With contributions from (in alphabetic order):
   Daniel Aravena         : Magnetic Suceptibility
   Michael Atanasov       : Ab Initio Ligand Field Theory (pilot matlab implementation)
   Alexander A. Auer      : GIAO ZORA, VPT2 properties, NMR spectrum
   Ute Becker             : Parallelization
   Giovanni Bistoni       : ED, misc. LED, open-shell LED, HFLD
   Martin Brehm           : Molecular dynamics
   Dmytro Bykov           : SCF Hessian
   Vijay G. Chilkuri      : MRCI spin determinant printing, contributions to CSF-ICE
   Dipayan Datta          : RHF DLPNO-CCSD density
   Achintya Kumar Dutta   : EOM-CC, STEOM-CC
   Dmitry Ganyushin       : Spin-Orbit,Spin-Spin,Magnetic field MRCI
   Miquel Garcia          : C-PCM and meta-GGA Hessian, CC/C-PCM, Gaussian charge scheme
   Yang Guo               : DLPNO-NEVPT2, F12-NEVPT2, CIM, IAO-localization
   Andreas Hansen         : Spin unrestricted coupled pair/coupled cluster methods
   Benjamin Helmich-Paris : MC-RPA, TRAH-SCF, COSX integrals
   Lee Huntington         : MR-EOM, pCC
   Robert Izsak           : Overlap fitted RIJCOSX, COSX-SCS-MP3, EOM
   Marcus Kettner         : VPT2
   Christian Kollmar      : KDIIS, OOCD, Brueckner-CCSD(T), CCSD density, CASPT2, CASPT2-K
   Simone Kossmann        : Meta GGA functionals, TD-DFT gradient, OOMP2, MP2 Hessian
   Martin Krupicka        : Initial AUTO-CI
   Lucas Lang             : DCDCAS
   Marvin Lechner         : AUTO-CI (C++ implementation), FIC-MRCC
   Dagmar Lenk            : GEPOL surface, SMD
   Dimitrios Liakos       : Extrapolation schemes; Compound Job, initial MDCI parallelization
   Dimitrios Manganas     : Further ROCIS development; embedding schemes
   Dimitrios Pantazis     : SARC Basis sets
   Anastasios Papadopoulos: AUTO-CI, single reference methods and gradients
   Taras Petrenko         : DFT Hessian,TD-DFT gradient, ASA, ECA, R-Raman, ABS, FL, XAS/XES, NRVS
   Peter Pinski           : DLPNO-MP2, DLPNO-MP2 Gradient
   Christoph Reimann      : Effective Core Potentials
   Marius Retegan         : Local ZFS, SOC
   Christoph Riplinger    : Optimizer, TS searches, QM/MM, DLPNO-CCSD(T), (RO)-DLPNO pert. Triples
   Tobias Risthaus        : Range-separated hybrids, TD-DFT gradient, RPA, STAB
   Michael Roemelt        : Original ROCIS implementation
   Masaaki Saitow         : Open-shell DLPNO-CCSD energy and density
   Barbara Sandhoefer     : DKH picture change effects
   Avijit Sen             : IP-ROCIS
   Kantharuban Sivalingam : CASSCF convergence, NEVPT2, FIC-MRCI
   Bernardo de Souza      : ESD, SOC TD-DFT
   Georgi Stoychev        : AutoAux, RI-MP2 NMR, DLPNO-MP2 response
   Willem Van den Heuvel  : Paramagnetic NMR
   Boris Wezisla          : Elementary symmetry handling
   Frank Wennmohs         : Technical directorship


 We gratefully acknowledge several colleagues who have allowed us to
 interface, adapt or use parts of their codes:
   Stefan Grimme, W. Hujo, H. Kruse, P. Pracht,  : VdW corrections, initial TS optimization,
                  C. Bannwarth, S. Ehlert          DFT functionals, gCP, sTDA/sTD-DF
   Ed Valeev, F. Pavosevic, A. Kumar             : LibInt (2-el integral package), F12 methods
   Garnet Chan, S. Sharma, J. Yang, R. Olivares  : DMRG
   Ulf Ekstrom                                   : XCFun DFT Library
   Mihaly Kallay                                 : mrcc  (arbitrary order and MRCC methods)
   Jiri Pittner, Ondrej Demel                    : Mk-CCSD
   Frank Weinhold                                : gennbo (NPA and NBO analysis)
   Christopher J. Cramer and Donald G. Truhlar   : smd solvation model
   Lars Goerigk                                  : TD-DFT with DH, B97 family of functionals
   V. Asgeirsson, H. Jonsson                     : NEB implementation
   FAccTs GmbH                                   : IRC, NEB, NEB-TS, DLPNO-Multilevel, CI-OPT
                                                   MM, QMMM, 2- and 3-layer-ONIOM, Crystal-QMMM,
                                                   LR-CPCM, SF, NACMEs, symmetry and pop. for TD-DFT,
                                                   nearIR, NL-DFT gradient (VV10), updates on ESD,
                                                   ML-optimized integration grids
   S Lehtola, MJT Oliveira, MAL Marques          : LibXC Library
   Liviu Ungur et al                             : ANISO software


 Your calculation uses the libint2 library for the computation of 2-el integrals
 For citations please refer to: http://libint.valeyev.net

 Your ORCA version has been built with support for libXC version: 5.1.0
 For citations please refer to: https://tddft.org/programs/libxc/

 This ORCA versions uses:
   CBLAS   interface :  Fast vector & matrix operations
   LAPACKE interface :  Fast linear algebra routines
   SCALAPACK package :  Parallel linear algebra routines
   Shared memory     :  Shared parallel matrices
   BLAS/LAPACK       :  OpenBLAS 0.3.15  USE64BITINT DYNAMIC_ARCH NO_AFFINITY Haswell SINGLE_THREADED
        Core in use  :  Haswell
   Copyright (c) 2011-2014, The OpenBLAS Project




***************************************
The coordinates will be read from file: B34.xyz
***************************************


Your calculation utilizes the geometrical counterpoise correction gCP
Please cite in your paper:
H.Kruse, S. Grimme J.Chem.Phys., 136, (2012), 154101 
   

Your calculation utilizes the atom-pairwise dispersion correction
with the Becke-Johnson damping scheme (D3BJ)
Cite in your paper:
S.Grimme, S.Ehrlich, L.Goerigk, J Comput Chem, (2011), 32, 1456–1465 
S.Grimme, J.Antony, S.Ehrlich and H.Krieg, J.Chem.Phys., 132, (2010), 154104 
   

Your calculation employs the composite approach PBEh-3c.
Please cite in your paper:
S. Grimme, J. G. Brandenburg, C. Bannwarth, A. Hansen J.Chem.Phys., 143, (2015), 054107 
   

================================================================================

----- Orbital basis set information -----
Your calculation utilizes the basis: def2-mSVP

----- AuxJ basis set information -----
Your calculation utilizes the auxiliary basis: def2/J
   F. Weigend, Phys. Chem. Chem. Phys. 8, 1057 (2006).

================================================================================
                                        WARNINGS
                       Please study these warnings very carefully!
================================================================================


INFO   : the flag for use of the SHARK integral package has been found!

================================================================================
                                       INPUT FILE
================================================================================
NAME = pbeh-3c.inp
|  1> ! PBEh-3c def2/J TightSCF DefGrid3
|  2> 
|  3> %maxcore 60000
|  4> 
|  5> %pal
|  6> nprocs 4
|  7> end
|  8> 
|  9> *xyzfile 0 1 B34.xyz
| 10> 
| 11>                          ****END OF INPUT****
================================================================================

                       ****************************
                       * Single Point Calculation *
                       ****************************

---------------------------------
CARTESIAN COORDINATES (ANGSTROEM)
---------------------------------
  C      1.397026   -0.725223    0.111659
  H      0.816017   -1.396394   -0.520689
  O      2.120576    0.101548   -0.796525
  C      0.487796    0.067324    1.045545
  H     -0.068159   -0.637516    1.670236
  H      1.108040    0.651343    1.731495
  C     -0.482537    1.007675    0.325588
  H      0.082720    1.762783   -0.224047
  H     -1.089457    1.526992    1.069303
  H      2.689167    0.674256   -0.273955
  H      2.079080   -1.347194    0.699040
  C     -1.412829    0.307235   -0.658150
  H     -2.102844    1.033522   -1.084317
  H     -0.842544   -0.123323   -1.485431
  O     -2.236079   -0.681840   -0.038671
  H     -1.684735   -1.444210    0.152079

----------------------------
CARTESIAN COORDINATES (A.U.)
----------------------------
  NO LB      ZA    FRAG     MASS         X           Y           Z
   0 C     6.0000    0    12.011    2.639997   -1.370473    0.211005
   1 H     1.0000    0     1.008    1.542049   -2.638802   -0.983960
   2 O     8.0000    0    15.999    4.007308    0.191898   -1.505214
   3 C     6.0000    0    12.011    0.921801    0.127224    1.975794
   4 H     1.0000    0     1.008   -0.128802   -1.204731    3.156289
   5 H     1.0000    0     1.008    2.093892    1.230860    3.272051
   6 C     6.0000    0    12.011   -0.911863    1.904230    0.615272
   7 H     1.0000    0     1.008    0.156318    3.331177   -0.423387
   8 H     1.0000    0     1.008   -2.058775    2.885597    2.020690
   9 H     1.0000    0     1.008    5.081789    1.274159   -0.517700
  10 H     1.0000    0     1.008    3.928892   -2.545828    1.320994
  11 C     6.0000    0    12.011   -2.669860    0.580590   -1.243723
  12 H     1.0000    0     1.008   -3.973799    1.953074   -2.049062
  13 H     1.0000    0     1.008   -1.592177   -0.233047   -2.807058
  14 O     8.0000    0    15.999   -4.225577   -1.288491   -0.073078
  15 H     1.0000    0     1.008   -3.183688   -2.729161    0.287388

--------------------------------
INTERNAL COORDINATES (ANGSTROEM)
--------------------------------
 C      0   0   0     0.000000000000     0.00000000     0.00000000
 H      1   0   0     1.089910988304     0.00000000     0.00000000
 O      1   2   0     1.425437850907   104.95816147     0.00000000
 C      1   2   3     1.525441903550   110.94034554   122.40199442
 H      4   1   2     1.093674646824   108.53227648    59.45374981
 H      4   1   2     1.093758755118   108.86632448   174.29645842
 C      4   1   2     1.531059834213   114.14024297   296.37493609
 H      7   4   1     1.091696936397   109.47636535   297.24367043
 H      7   4   1     1.091400033954   108.91980188   179.87448730
 H      3   1   2     0.961441409263   107.42123906   183.42951353
 H      1   2   3     1.094103296274   107.08110032   242.16876944
 C      7   4   1     1.524401473204   114.08009558    58.37010089
 H     12   7   4     1.088683525403   109.44319971   176.93469362
 H     12   7   4     1.093160109751   110.54719213   294.89482887
 O     12   7   4     1.428203119156   112.95893289    59.77834241
 H     15  12   7     0.959986346640   107.76434470   285.39800080

---------------------------
INTERNAL COORDINATES (A.U.)
---------------------------
 C      0   0   0     0.000000000000     0.00000000     0.00000000
 H      1   0   0     2.059633278246     0.00000000     0.00000000
 O      1   2   0     2.693687159139   104.95816147     0.00000000
 C      1   2   3     2.882667430916   110.94034554   122.40199442
 H      4   1   2     2.066745562111   108.53227648    59.45374981
 H      4   1   2     2.066904503751   108.86632448   174.29645842
 C      4   1   2     2.893283781309   114.14024297   296.37493609
 H      7   4   1     2.063008231031   109.47636535   297.24367043
 H      7   4   1     2.062447166725   108.91980188   179.87448730
 H      3   1   2     1.816860957318   107.42123906   183.42951353
 H      1   2   3     2.067555592179   107.08110032   242.16876944
 C      7   4   1     2.880701302503   114.08009558    58.37010089
 H     12   7   4     2.057313709523   109.44319971   176.93469362
 H     12   7   4     2.065773227956   110.54719213   294.89482887
 O     12   7   4     2.698912758816   112.95893289    59.77834241
 H     15  12   7     1.814111287454   107.76434470   285.39800080

---------------------
BASIS SET INFORMATION
---------------------
There are 3 groups of distinct atoms

 Group   1 Type C   : 8s4p1d contracted to 4s2p1d pattern {5111/31/1}
 Group   2 Type H   : 4s contracted to 2s pattern {31}
 Group   3 Type O   : 8s4p1d contracted to 4s2p1d pattern {5111/31/1}

Atom   0C    basis set group =>   1
Atom   1H    basis set group =>   2
Atom   2O    basis set group =>   3
Atom   3C    basis set group =>   1
Atom   4H    basis set group =>   2
Atom   5H    basis set group =>   2
Atom   6C    basis set group =>   1
Atom   7H    basis set group =>   2
Atom   8H    basis set group =>   2
Atom   9H    basis set group =>   2
Atom  10H    basis set group =>   2
Atom  11C    basis set group =>   1
Atom  12H    basis set group =>   2
Atom  13H    basis set group =>   2
Atom  14O    basis set group =>   3
Atom  15H    basis set group =>   2
---------------------------------
AUXILIARY/J BASIS SET INFORMATION
---------------------------------
There are 3 groups of distinct atoms

 Group   1 Type C   : 12s5p4d2f1g contracted to 6s4p3d1f1g pattern {711111/2111/211/2/1}
 Group   2 Type H   : 5s2p1d contracted to 3s1p1d pattern {311/2/1}
 Group   3 Type O   : 12s5p4d2f1g contracted to 6s4p3d1f1g pattern {711111/2111/211/2/1}

Atom   0C    basis set group =>   1
Atom   1H    basis set group =>   2
Atom   2O    basis set group =>   3
Atom   3C    basis set group =>   1
Atom   4H    basis set group =>   2
Atom   5H    basis set group =>   2
Atom   6C    basis set group =>   1
Atom   7H    basis set group =>   2
Atom   8H    basis set group =>   2
Atom   9H    basis set group =>   2
Atom  10H    basis set group =>   2
Atom  11C    basis set group =>   1
Atom  12H    basis set group =>   2
Atom  13H    basis set group =>   2
Atom  14O    basis set group =>   3
Atom  15H    basis set group =>   2


           ************************************************************
           *        Program running with 4 parallel MPI-processes     *
           *              working on a common directory               *
           ************************************************************
------------------------------------------------------------------------------
                           ORCA GTO INTEGRAL CALCULATION
                           -- RI-GTO INTEGRALS CHOSEN --
------------------------------------------------------------------------------
------------------------------------------------------------------------------
                   ___                                                        
                  /   \      - P O W E R E D   B Y -                         
                 /     \                                                     
                 |  |  |   _    _      __       _____    __    __             
                 |  |  |  | |  | |    /  \     |  _  \  |  |  /  |          
                  \  \/   | |  | |   /    \    | | | |  |  | /  /          
                 / \  \   | |__| |  /  /\  \   | |_| |  |  |/  /          
                |  |  |   |  __  | /  /__\  \  |    /   |      \           
                |  |  |   | |  | | |   __   |  |    \   |  |\   \          
                \     /   | |  | | |  |  |  |  | |\  \  |  | \   \       
                 \___/    |_|  |_| |__|  |__|  |_| \__\ |__|  \__/        
                                                                              
                      - O R C A' S   B I G   F R I E N D -                    
                                      &                                       
                       - I N T E G R A L  F E E D E R -                       
                                                                              
 v1 FN, 2020, v2 2021                                                         
------------------------------------------------------------------------------


Reading SHARK input file pbeh-3c.SHARKINP.tmp ... ok
----------------------
SHARK INTEGRAL PACKAGE
----------------------

Number of atoms                             ...     16
Number of basis functions                   ...    110
Number of shells                            ...     62
Maximum angular momentum                    ...      2
Integral batch strategy                     ... SHARK/LIBINT Hybrid
RI-J (if used) integral strategy            ... SPLIT-RIJ (Revised 2003 algorithm where possible)
Printlevel                                  ...      1
Contraction scheme used                     ... SEGMENTED contraction
Coulomb Range Separation                    ... NOT USED
Exchange Range Separation                   ... NOT USED
Finite Nucleus Model                        ... NOT USED
Auxiliary Coulomb fitting basis             ... AVAILABLE
   # of basis functions in Aux-J            ...    404
   # of shells in Aux-J                     ...    140
   Maximum angular momentum in Aux-J        ...      4
Auxiliary J/K fitting basis                 ... NOT available
Auxiliary Correlation fitting basis         ... NOT available
Auxiliary 'external' fitting basis          ... NOT available
Integral threshold                          ...     2.500000e-11
Primitive cut-off                           ...     2.500000e-12
Primitive pair pre-selection threshold      ...     2.500000e-12

Calculating pre-screening integrals         ... done (  0.1 sec) Dimension = 62
Organizing shell pair data                  ... done (  0.3 sec)
Shell pair information
Total number of shell pairs                 ...      1953
Shell pairs after pre-screening             ...      1833
Total number of primitive shell pairs       ...      7129
Primitive shell pairs kept                  ...      4921
          la=0 lb=0:    900 shell pairs
          la=1 lb=0:    515 shell pairs
          la=1 lb=1:     77 shell pairs
          la=2 lb=0:    250 shell pairs
          la=2 lb=1:     70 shell pairs
          la=2 lb=2:     21 shell pairs

Calculating one electron integrals          ... done (  0.0 sec)
Calculating RI/J V-Matrix + Cholesky decomp.... done (  0.6 sec)
Calculating Nuclear repulsion               ... done (  0.1 sec) ENN=    258.356225361953 Eh

SHARK setup successfully completed in   2.2 seconds

Maximum memory used throughout the entire GTOINT-calculation: 10.5 MB


           ************************************************************
           *        Program running with 4 parallel MPI-processes     *
           *              working on a common directory               *
           ************************************************************
-------------------------------------------------------------------------------
                                 ORCA SCF
-------------------------------------------------------------------------------

------------
SCF SETTINGS
------------
Hamiltonian:
 Density Functional     Method          .... DFT(GTOs)
 Exchange Functional    Exchange        .... PBE
   PBE kappa parameter   XKappa         ....  1.024500
   PBE mue parameter    XMuePBE         ....  0.123457
 Correlation Functional Correlation     .... PBE
   PBE beta parameter  CBetaPBE         ....  0.030000
 LDA part of GGA corr.  LDAOpt          .... PW91-LDA
 Gradients option       PostSCFGGA      .... off
 Hybrid DFT is turned on
   Fraction HF Exchange ScalHFX         ....  0.420000
   Scaling of DF-GGA-X  ScalDFX         ....  0.580000
   Scaling of DF-GGA-C  ScalDFC         ....  1.000000
   Scaling of DF-LDA-C  ScalLDAC        ....  1.000000
   Perturbative correction              ....  0.000000
   Density functional embedding theory  .... OFF
 RI-approximation to the Coulomb term is turned on
   Number of AuxJ basis functions       .... 404
   RIJ-ON(X) (HFX calculated with O(N)) .... on
   Number of AuxJ basis functions       .... 404
   RIJ-COSX (HFX calculated with COS-X)).... on


General Settings:
 Integral files         IntName         .... pbeh-3c
 Hartree-Fock type      HFTyp           .... RHF
 Total Charge           Charge          ....    0
 Multiplicity           Mult            ....    1
 Number of Electrons    NEL             ....   50
 Basis Dimension        Dim             ....  110
 Nuclear Repulsion      ENuc            ....    258.3562253620 Eh

Convergence Acceleration:
 DIIS                   CNVDIIS         .... on
   Start iteration      DIISMaxIt       ....    12
   Startup error        DIISStart       ....  0.200000
   # of expansion vecs  DIISMaxEq       ....     5
   Bias factor          DIISBfac        ....   1.050
   Max. coefficient     DIISMaxC        ....  10.000
 Trust-Rad. Augm. Hess. CNVTRAH         .... auto
   Auto Start mean grad. ratio tolernc. ....  1.125000
   Auto Start start iteration           ....    20
   Auto Start num. interpolation iter.  ....    10
   Max. Number of Micro iterations      ....    16
   Max. Number of Macro iterations      .... Maxiter - #DIIS iter
   Number of Davidson start vectors     ....     2
   Converg. threshold I  (grad. norm)   ....   1.000e-05
   Converg. threshold II (energy diff.) ....   1.000e-08
   Grad. Scal. Fac. for Micro threshold ....   0.100
   Minimum threshold for Micro iter.    ....   0.010
   NR start threshold (gradient norm)   ....   0.001
   Initial trust radius                 ....   0.400
   Minimum AH scaling param. (alpha)    ....   1.000
   Maximum AH scaling param. (alpha)    .... 1000.000
   Orbital update algorithm             .... Taylor
   White noise on init. David. guess    .... on
   Maximum white noise                  ....   0.010
   Quad. conv. algorithm                .... NR
   COSX micro iterations for RIJONX calc.... off
 SOSCF                  CNVSOSCF        .... on
   Start iteration      SOSCFMaxIt      ....   150
   Startup grad/error   SOSCFStart      ....  0.003300
 Level Shifting         CNVShift        .... on
   Level shift para.    LevelShift      ....    0.2500
   Turn off err/grad.   ShiftErr        ....    0.0010
 Zerner damping         CNVZerner       .... off
 Static damping         CNVDamp         .... on
   Fraction old density DampFac         ....    0.7000
   Max. Damping (<1)    DampMax         ....    0.9800
   Min. Damping (>=0)   DampMin         ....    0.0000
   Turn off err/grad.   DampErr         ....    0.1000
 Fernandez-Rico         CNVRico         .... off

SCF Procedure:
 Maximum # iterations   MaxIter         ....   125
 SCF integral mode      SCFMode         .... Direct
   Integral package                     .... SHARK and LIBINT hybrid scheme
 Reset frequency        DirectResetFreq ....    20
 Integral Threshold     Thresh          ....  2.500e-11 Eh
 Primitive CutOff       TCut            ....  2.500e-12 Eh

Convergence Tolerance:
 Convergence Check Mode ConvCheckMode   .... Total+1el-Energy
 Convergence forced     ConvForced      .... 0
 Energy Change          TolE            ....  1.000e-08 Eh
 1-El. energy change                    ....  1.000e-05 Eh
 Orbital Gradient       TolG            ....  1.000e-05
 Orbital Rotation angle TolX            ....  1.000e-05
 DIIS Error             TolErr          ....  5.000e-07


Diagonalization of the overlap matrix:
Smallest eigenvalue                        ... 6.463e-03
Time for diagonalization                   ...    0.002 sec
Threshold for overlap eigenvalues          ... 1.000e-08
Number of eigenvalues below threshold      ... 0
Time for construction of square roots      ...    0.350 sec
Total time needed                          ...    0.353 sec

--------------------------------
INITIAL GUESS: MINIMAL BASIS EHT
--------------------------------
The minimal basis has 40 functions
EHT matrix was diagonalized
Basis set overlap was calculated now projecting the orbitals
Using GuessMode=FMatrix for the initial guess
C*T matrix was formed
Effective Fockian was calculated
Effective Fockian was diagonalized
Initial density was built
                      ------------------
                      INITIAL GUESS DONE
                      ------------------
-------------------
DFT GRID GENERATION
-------------------

General Integration Accuracy     IntAcc      ... 4.959
Radial Grid Type                 RadialGrid  ... OptM3 with GC (2021)
Angular Grid (max. ang.)         AngularGrid ... 6 (Lebedev-590)
Angular grid pruning method      GridPruning ... 4 (adaptive)
Weight generation scheme         WeightScheme... Becke
Basis function cutoff            BFCut       ... 1.0000e-11
Integration weight cutoff        WCut        ... 1.0000e-14
Angular grids for H and He will be reduced by one unit
Partially contracted basis set               ... off
Rotationally invariant grid construction     ... off

Total number of grid points                  ...   172956
Total number of batches                      ...     2710
Average number of points per batch           ...       63
Average number of grid points per atom       ...    10810
Time for grid setup =    3.346 sec

--------------------
COSX GRID GENERATION
--------------------

GRIDX 1
-------
General Integration Accuracy     IntAcc      ... 4.020
Radial Grid Type                 RadialGrid  ... OptM3 with GC (2021)
Angular Grid (max. ang.)         AngularGrid ... 2 (Lebedev-110)
Angular grid pruning method      GridPruning ... 4 (adaptive)
Weight generation scheme         WeightScheme... Becke
Basis function cutoff            BFCut       ... 1.0000e-11
Integration weight cutoff        WCut        ... 1.0000e-14
Angular grids for H and He will be reduced by one unit
Partially contracted basis set               ... on
Rotationally invariant grid construction     ... off

Total number of grid points                  ...    18372
Total number of batches                      ...      296
Average number of points per batch           ...       62
Average number of grid points per atom       ...     1148
UseSFitting                                  ... on

GRIDX 2
-------
General Integration Accuracy     IntAcc      ... 4.338
Radial Grid Type                 RadialGrid  ... OptM3 with GC (2021)
Angular Grid (max. ang.)         AngularGrid ... 3 (Lebedev-194)
Angular grid pruning method      GridPruning ... 4 (adaptive)
Weight generation scheme         WeightScheme... Becke
Basis function cutoff            BFCut       ... 1.0000e-11
Integration weight cutoff        WCut        ... 1.0000e-14
Angular grids for H and He will be reduced by one unit
Partially contracted basis set               ... on
Rotationally invariant grid construction     ... off

Total number of grid points                  ...    40281
Total number of batches                      ...      637
Average number of points per batch           ...       63
Average number of grid points per atom       ...     2518
UseSFitting                                  ... on

GRIDX 3
-------
General Integration Accuracy     IntAcc      ... 4.871
Radial Grid Type                 RadialGrid  ... OptM3 with GC (2021)
Angular Grid (max. ang.)         AngularGrid ... 4 (Lebedev-302)
Angular grid pruning method      GridPruning ... 4 (adaptive)
Weight generation scheme         WeightScheme... Becke
Basis function cutoff            BFCut       ... 1.0000e-11
Integration weight cutoff        WCut        ... 1.0000e-14
Angular grids for H and He will be reduced by one unit
Partially contracted basis set               ... on
Rotationally invariant grid construction     ... off

Total number of grid points                  ...    79332
Total number of batches                      ...     1249
Average number of points per batch           ...       63
Average number of grid points per atom       ...     4958
UseSFitting                                  ... on

Time for X-Grid setup             =    4.565 sec

--------------
SCF ITERATIONS
--------------
ITER       Energy         Delta-E        Max-DP      RMS-DP      [F,P]     Damp
               ***  Starting incremental Fock matrix formation  ***
  0   -307.3880470035   0.000000000000 0.16320833  0.00624642  0.4959258 0.7000
  1   -307.6910920766  -0.303045073112 0.09431299  0.00363882  0.2811067 0.7000
                               ***Turning on DIIS***
  2   -307.8553247680  -0.164232691407 0.04737482  0.00197954  0.1980659 0.7000
  3   -307.9672419005  -0.111917132456 0.02368434  0.00119449  0.1392748 0.7000
  4   -308.0466699754  -0.079428074870 0.06139518  0.00295524  0.0975417 0.0000
  5   -308.2371398834  -0.190469908077 0.00993323  0.00030677  0.0102718 0.0000
  6   -308.2373392736  -0.000199390204 0.00277637  0.00008848  0.0055254 0.0000
                      *** Initiating the SOSCF procedure ***
                           *** Shutting down DIIS ***
                      *** Re-Reading the Fockian *** 
                      *** Removing any level shift *** 
ITER      Energy       Delta-E        Grad      Rot      Max-DP    RMS-DP
  7   -308.23741178  -0.0000725027  0.000320  0.000320  0.001058  0.000043
               *** Restarting incremental Fock matrix formation ***
  8   -308.23740502   0.0000067585  0.000124  0.000255  0.000608  0.000022
  9   -308.23740588  -0.0000008630  0.000035  0.000121  0.000273  0.000010
 10   -308.23740592  -0.0000000398  0.000032  0.000028  0.000080  0.000004
 11   -308.23740596  -0.0000000368  0.000004  0.000005  0.000013  0.000001
 12   -308.23740596  -0.0000000002  0.000003  0.000002  0.000007  0.000000
                 **** Energy Check signals convergence ****
              ***Rediagonalizing the Fockian in SOSCF/NRSCF***

               *****************************************************
               *                     SUCCESS                       *
               *           SCF CONVERGED AFTER  13 CYCLES          *
               *****************************************************

Old exchange energy                            =    -17.133114088 Eh
New exchange energy                            =    -17.133126903 Eh
Exchange energy change after final integration =     -0.000012814 Eh
Total energy after final integration           =   -308.237418772 Eh
Final COS-X integration done in                =     2.797 sec

----------------
TOTAL SCF ENERGY
----------------

Total Energy       :         -308.23741877 Eh           -8387.56658 eV

Components:
Nuclear Repulsion  :          258.35622536 Eh            7030.23030 eV
Electronic Energy  :         -566.59364413 Eh          -15417.79688 eV
One Electron Energy:         -931.75782871 Eh          -25354.41951 eV
Two Electron Energy:          365.16418458 Eh            9936.62263 eV
Max COSX asymmetry :            0.00000216 Eh               0.00006 eV

Virial components:
Potential Energy   :         -614.25851884 Eh          -16714.82406 eV
Kinetic Energy     :          306.02110007 Eh            8327.25748 eV
Virial Ratio       :            2.00724237


DFT components:
N(Alpha)           :       25.000025046536 electrons
N(Beta)            :       25.000025046536 electrons
N(Total)           :       50.000050093073 electrons
E(X)               :      -22.763106497311 Eh       
E(C)               :       -2.178236503090 Eh       
E(XC)              :      -24.941343000402 Eh       
DFET-embed. en.    :        0.000000000000 Eh       

---------------
SCF CONVERGENCE
---------------

  Last Energy change         ...    7.8444e-11  Tolerance :   1.0000e-08
  Last MAX-Density change    ...    7.7716e-16  Tolerance :   1.0000e-07
  Last RMS-Density change    ...    4.8029e-17  Tolerance :   5.0000e-09
  Last Orbital Gradient      ...    1.6491e-07  Tolerance :   1.0000e-05
  Last Orbital Rotation      ...    2.7998e-07  Tolerance :   1.0000e-05

             **** THE GBW FILE WAS UPDATED (pbeh-3c.gbw) ****
             **** DENSITY pbeh-3c.scfp WAS UPDATED ****
             **** ENERGY FILE WAS UPDATED (pbeh-3c.en.tmp) ****
             **** THE GBW FILE WAS UPDATED (pbeh-3c.gbw) ****
             **** DENSITY pbeh-3c.scfp WAS UPDATED ****
----------------
ORBITAL ENERGIES
----------------

  NO   OCC          E(Eh)            E(eV) 
   0   2.0000     -19.491565      -530.3924 
   1   2.0000     -19.482152      -530.1363 
   2   2.0000     -10.488015      -285.3934 
   3   2.0000     -10.475756      -285.0598 
   4   2.0000     -10.441206      -284.1197 
   5   2.0000     -10.430853      -283.8379 
   6   2.0000      -1.127771       -30.6882 
   7   2.0000      -1.117518       -30.4092 
   8   2.0000      -0.882429       -24.0121 
   9   2.0000      -0.798325       -21.7235 
  10   2.0000      -0.723680       -19.6923 
  11   2.0000      -0.651633       -17.7318 
  12   2.0000      -0.573159       -15.5964 
  13   2.0000      -0.562132       -15.2964 
  14   2.0000      -0.538525       -14.6540 
  15   2.0000      -0.509690       -13.8694 
  16   2.0000      -0.486866       -13.2483 
  17   2.0000      -0.476741       -12.9728 
  18   2.0000      -0.427446       -11.6314 
  19   2.0000      -0.420098       -11.4315 
  20   2.0000      -0.403999       -10.9934 
  21   2.0000      -0.378085       -10.2882 
  22   2.0000      -0.371719       -10.1150 
  23   2.0000      -0.332660        -9.0521 
  24   2.0000      -0.318295        -8.6612 
  25   0.0000       0.099690         2.7127 
  26   0.0000       0.131567         3.5801 
  27   0.0000       0.166149         4.5211 
  28   0.0000       0.178984         4.8704 
  29   0.0000       0.190961         5.1963 
  30   0.0000       0.197374         5.3708 
  31   0.0000       0.225855         6.1458 
  32   0.0000       0.234375         6.3777 
  33   0.0000       0.241219         6.5639 
  34   0.0000       0.251040         6.8312 
  35   0.0000       0.254980         6.9384 
  36   0.0000       0.256113         6.9692 
  37   0.0000       0.261560         7.1174 
  38   0.0000       0.277155         7.5418 
  39   0.0000       0.327636         8.9154 
  40   0.0000       0.494968        13.4688 
  41   0.0000       0.534300        14.5390 
  42   0.0000       0.547437        14.8965 
  43   0.0000       0.576612        15.6904 
  44   0.0000       0.580801        15.8044 
  45   0.0000       0.586237        15.9523 
  46   0.0000       0.615185        16.7400 
  47   0.0000       0.630235        17.1496 
  48   0.0000       0.668165        18.1817 
  49   0.0000       0.724110        19.7040 
  50   0.0000       0.823947        22.4207 
  51   0.0000       0.826872        22.5003 
  52   0.0000       0.893797        24.3214 
  53   0.0000       0.916984        24.9524 
  54   0.0000       0.951157        25.8823 
  55   0.0000       0.980993        26.6942 
  56   0.0000       0.984947        26.8018 
  57   0.0000       1.016589        27.6628 
  58   0.0000       1.028466        27.9860 
  59   0.0000       1.047543        28.5051 
  60   0.0000       1.057519        28.7766 
  61   0.0000       1.072782        29.1919 
  62   0.0000       1.090267        29.6677 
  63   0.0000       1.131314        30.7846 
  64   0.0000       1.143685        31.1213 
  65   0.0000       1.174954        31.9721 
  66   0.0000       1.205081        32.7919 
  67   0.0000       1.239940        33.7405 
  68   0.0000       1.271421        34.5971 
  69   0.0000       1.320904        35.9436 
  70   0.0000       1.422551        38.7096 
  71   0.0000       1.482498        40.3408 
  72   0.0000       1.518368        41.3169 
  73   0.0000       1.540585        41.9214 
  74   0.0000       1.613074        43.8940 
  75   0.0000       1.617759        44.0215 
  76   0.0000       1.757180        47.8153 
  77   0.0000       1.779370        48.4191 
  78   0.0000       1.817961        49.4692 
  79   0.0000       1.870775        50.9064 
  80   0.0000       1.873756        50.9875 
  81   0.0000       1.929136        52.4945 
  82   0.0000       1.950792        53.0837 
  83   0.0000       1.983291        53.9681 
  84   0.0000       2.028747        55.2050 
  85   0.0000       2.080269        56.6070 
  86   0.0000       2.117219        57.6125 
  87   0.0000       2.169657        59.0394 
  88   0.0000       2.205937        60.0266 
  89   0.0000       2.252357        61.2897 
  90   0.0000       2.325400        63.2773 
  91   0.0000       2.333075        63.4862 
  92   0.0000       2.394123        65.1474 
  93   0.0000       2.435316        66.2683 
  94   0.0000       2.462576        67.0101 
  95   0.0000       2.497858        67.9702 
  96   0.0000       2.541117        69.1473 
  97   0.0000       2.612187        71.0812 
  98   0.0000       2.625041        71.4310 
  99   0.0000       2.682544        72.9957 
 100   0.0000       2.738294        74.5128 
 101   0.0000       2.785754        75.8042 
 102   0.0000       2.893582        78.7384 
 103   0.0000       2.919063        79.4318 
 104   0.0000      13.573721       369.3597 
 105   0.0000      13.804221       375.6319 
 106   0.0000      13.990274       380.6947 
 107   0.0000      14.037921       381.9912 
 108   0.0000      25.511865       694.2131 
 109   0.0000      25.522081       694.4911 

                    ********************************
                    * MULLIKEN POPULATION ANALYSIS *
                    ********************************

-----------------------
MULLIKEN ATOMIC CHARGES
-----------------------
   0 C :   -0.161829
   1 H :    0.198191
   2 O :   -0.620291
   3 C :   -0.494848
   4 H :    0.213110
   5 H :    0.217798
   6 C :   -0.425296
   7 H :    0.214419
   8 H :    0.227141
   9 H :    0.410726
  10 H :    0.199464
  11 C :   -0.180669
  12 H :    0.221666
  13 H :    0.197115
  14 O :   -0.628117
  15 H :    0.411421
Sum of atomic charges:    0.0000000

--------------------------------
MULLIKEN REDUCED ORBITAL CHARGES
--------------------------------
  0 C s       :     3.259151  s :     3.259151
      pz      :     0.928909  p :     2.834149
      px      :     0.978883
      py      :     0.926357
      dz2     :     0.006332  d :     0.068529
      dxz     :     0.019198
      dyz     :     0.019831
      dx2y2   :     0.007003
      dxy     :     0.016164
  1 H s       :     0.801809  s :     0.801809
  2 O s       :     3.815988  s :     3.815988
      pz      :     1.597838  p :     4.775040
      px      :     1.618046
      py      :     1.559157
      dz2     :     0.004612  d :     0.029263
      dxz     :     0.008961
      dyz     :     0.009815
      dx2y2   :     0.001219
      dxy     :     0.004656
  3 C s       :     3.336182  s :     3.336182
      pz      :     1.037862  p :     3.115946
      px      :     1.023751
      py      :     1.054333
      dz2     :     0.002929  d :     0.042719
      dxz     :     0.011535
      dyz     :     0.012552
      dx2y2   :     0.003402
      dxy     :     0.012301
  4 H s       :     0.786890  s :     0.786890
  5 H s       :     0.782202  s :     0.782202
  6 C s       :     3.321542  s :     3.321542
      pz      :     1.037653  p :     3.061333
      px      :     0.997282
      py      :     1.026398
      dz2     :     0.003113  d :     0.042421
      dxz     :     0.012794
      dyz     :     0.011816
      dx2y2   :     0.003563
      dxy     :     0.011135
  7 H s       :     0.785581  s :     0.785581
  8 H s       :     0.772859  s :     0.772859
  9 H s       :     0.589274  s :     0.589274
 10 H s       :     0.800536  s :     0.800536
 11 C s       :     3.264919  s :     3.264919
      pz      :     0.960353  p :     2.847773
      px      :     0.962100
      py      :     0.925321
      dz2     :     0.008885  d :     0.067977
      dxz     :     0.017191
      dyz     :     0.014796
      dx2y2   :     0.006699
      dxy     :     0.020405
 12 H s       :     0.778334  s :     0.778334
 13 H s       :     0.802885  s :     0.802885
 14 O s       :     3.816652  s :     3.816652
      pz      :     1.803313  p :     4.782302
      px      :     1.615327
      py      :     1.363662
      dz2     :     0.004529  d :     0.029163
      dxz     :     0.005072
      dyz     :     0.002542
      dx2y2   :     0.003092
      dxy     :     0.013928
 15 H s       :     0.588579  s :     0.588579


                     *******************************
                     * LOEWDIN POPULATION ANALYSIS *
                     *******************************

----------------------
LOEWDIN ATOMIC CHARGES
----------------------
   0 C :   -0.099040
   1 H :    0.111834
   2 O :   -0.411565
   3 C :   -0.275649
   4 H :    0.126095
   5 H :    0.124307
   6 C :   -0.265268
   7 H :    0.130475
   8 H :    0.130474
   9 H :    0.307049
  10 H :    0.103561
  11 C :   -0.096420
  12 H :    0.122661
  13 H :    0.103789
  14 O :   -0.415875
  15 H :    0.303570

-------------------------------
LOEWDIN REDUCED ORBITAL CHARGES
-------------------------------
  0 C s       :     2.908434  s :     2.908434
      pz      :     1.013589  p :     3.045850
      px      :     1.029699
      py      :     1.002562
      dz2     :     0.013180  d :     0.144755
      dxz     :     0.040675
      dyz     :     0.042303
      dx2y2   :     0.015325
      dxy     :     0.033273
  1 H s       :     0.888166  s :     0.888166
  2 O s       :     3.530797  s :     3.530797
      pz      :     1.623321  p :     4.829635
      px      :     1.624545
      py      :     1.581769
      dz2     :     0.007649  d :     0.051133
      dxz     :     0.014343
      dyz     :     0.016245
      dx2y2   :     0.003819
      dxy     :     0.009076
  3 C s       :     2.920809  s :     2.920809
      pz      :     1.087604  p :     3.267303
      px      :     1.080248
      py      :     1.099451
      dz2     :     0.006338  d :     0.087537
      dxz     :     0.023729
      dyz     :     0.025043
      dx2y2   :     0.007091
      dxy     :     0.025335
  4 H s       :     0.873905  s :     0.873905
  5 H s       :     0.875693  s :     0.875693
  6 C s       :     2.919402  s :     2.919402
      pz      :     1.095822  p :     3.258563
      px      :     1.074508
      py      :     1.088232
      dz2     :     0.006658  d :     0.087303
      dxz     :     0.026084
      dyz     :     0.023661
      dx2y2   :     0.007832
      dxy     :     0.023069
  7 H s       :     0.869525  s :     0.869525
  8 H s       :     0.869526  s :     0.869526
  9 H s       :     0.692951  s :     0.692951
 10 H s       :     0.896439  s :     0.896439
 11 C s       :     2.908559  s :     2.908559
      pz      :     1.038695  p :     3.044343
      px      :     1.024712
      py      :     0.980936
      dz2     :     0.018125  d :     0.143518
      dxz     :     0.036685
      dyz     :     0.032020
      dx2y2   :     0.013809
      dxy     :     0.042878
 12 H s       :     0.877339  s :     0.877339
 13 H s       :     0.896211  s :     0.896211
 14 O s       :     3.530260  s :     3.530260
      pz      :     1.813387  p :     4.834776
      px      :     1.636033
      py      :     1.385356
      dz2     :     0.006981  d :     0.050840
      dxz     :     0.008083
      dyz     :     0.006158
      dx2y2   :     0.007069
      dxy     :     0.022549
 15 H s       :     0.696430  s :     0.696430


                      *****************************
                      * MAYER POPULATION ANALYSIS *
                      *****************************

  NA   - Mulliken gross atomic population
  ZA   - Total nuclear charge
  QA   - Mulliken gross atomic charge
  VA   - Mayer's total valence
  BVA  - Mayer's bonded valence
  FA   - Mayer's free valence

  ATOM       NA         ZA         QA         VA         BVA        FA
  0 C      6.1618     6.0000    -0.1618     3.7713     3.7713     0.0000
  1 H      0.8018     1.0000     0.1982     0.9134     0.9134     0.0000
  2 O      8.6203     8.0000    -0.6203     1.8594     1.8594    -0.0000
  3 C      6.4948     6.0000    -0.4948     3.7277     3.7277    -0.0000
  4 H      0.7869     1.0000     0.2131     0.9125     0.9125     0.0000
  5 H      0.7822     1.0000     0.2178     0.9094     0.9094    -0.0000
  6 C      6.4253     6.0000    -0.4253     3.6925     3.6925     0.0000
  7 H      0.7856     1.0000     0.2144     0.9144     0.9144     0.0000
  8 H      0.7729     1.0000     0.2271     0.9041     0.9041    -0.0000
  9 H      0.5893     1.0000     0.4107     0.8048     0.8048     0.0000
 10 H      0.8005     1.0000     0.1995     0.9036     0.9036     0.0000
 11 C      6.1807     6.0000    -0.1807     3.7740     3.7740     0.0000
 12 H      0.7783     1.0000     0.2217     0.9068     0.9068     0.0000
 13 H      0.8029     1.0000     0.1971     0.9040     0.9040     0.0000
 14 O      8.6281     8.0000    -0.6281     1.8469     1.8469     0.0000
 15 H      0.5886     1.0000     0.4114     0.8053     0.8053     0.0000

  Mayer bond orders larger than 0.100000
B(  0-C ,  1-H ) :   0.9162 B(  0-C ,  2-O ) :   1.0165 B(  0-C ,  3-C ) :   0.9645 
B(  0-C , 10-H ) :   0.9118 B(  2-O ,  9-H ) :   0.7945 B(  3-C ,  4-H ) :   0.9063 
B(  3-C ,  5-H ) :   0.9235 B(  3-C ,  6-C ) :   0.9732 B(  6-C ,  7-H ) :   0.9063 
B(  6-C ,  8-H ) :   0.9170 B(  6-C , 11-C ) :   0.9635 B( 11-C , 12-H ) :   0.9194 
B( 11-C , 13-H ) :   0.9087 B( 11-C , 14-O ) :   1.0114 B( 14-O , 15-H ) :   0.7928 


-------
TIMINGS
-------

Total SCF time: 0 days 0 hours 1 min 32 sec 

Total time                  ....      92.787 sec
Sum of individual times     ....      85.121 sec  ( 91.7%)

Fock matrix formation       ....      71.081 sec  ( 76.6%)
  Split-RI-J                ....       8.605 sec  ( 12.1% of F)
  Chain of spheres X        ....      22.713 sec  ( 32.0% of F)
  XC integration            ....      20.459 sec  ( 28.8% of F)
    Basis function eval.    ....       3.331 sec  ( 16.3% of XC)
    Density eval.           ....       2.162 sec  ( 10.6% of XC)
    XC-Functional eval.     ....       1.587 sec  (  7.8% of XC)
    XC-Potential eval.      ....       1.161 sec  (  5.7% of XC)
Diagonalization             ....       1.755 sec  (  1.9%)
Density matrix formation    ....       0.036 sec  (  0.0%)
Population analysis         ....       0.428 sec  (  0.5%)
Initial guess               ....       0.092 sec  (  0.1%)
Orbital Transformation      ....       0.000 sec  (  0.0%)
Orbital Orthonormalization  ....       0.000 sec  (  0.0%)
DIIS solution               ....       2.997 sec  (  3.2%)
SOSCF solution              ....       0.821 sec  (  0.9%)
Grid generation             ....       7.911 sec  (  8.5%)

Maximum memory used throughout the entire SCF-calculation: 52.9 MB


-------------------------------------------------------------------------------
                          DFT DISPERSION CORRECTION                            
                                                                               
                              DFTD3 V3.1  Rev 1                                
                          USING Becke-Johnson damping                          
-------------------------------------------------------------------------------
The PBEh-3c composite method is recognized
Using three-body term ABC
Active option DFTDOPT                   ...         4   

molecular C6(AA) [au] = 1675.076877 


            DFT-D V3
 parameters
 s6 scaling factor         :     1.0000 
 a1 scaling factor         :     0.4860 
 s8 scaling factor         :     0.0000 
 a2 scaling factor         :     4.5000 
 Damping factor alpha9(ATM):    16.0000 
 ad hoc parameters k1-k3   :    16.0000     1.3333    -4.0000 

 Edisp/kcal,au: -4.332424533465  -0.006904157229 
 E6   /kcal   :  -4.364745582 
 E8   /kcal   :  -0.000000000 
 E6(ABC)      :   0.032321048 
 % E8         :   0.000000000 
 % E6(ABC)    :  -0.746026800 

-------------------------   ----------------
Dispersion correction           -0.006904157
-------------------------   ----------------

------------------   -----------------
gCP correction             0.037267108
------------------   -----------------

-------------------------   --------------------
FINAL SINGLE POINT ENERGY      -308.207055820727
-------------------------   --------------------


                            ***************************************
                            *     ORCA property calculations      *
                            ***************************************

                                    ---------------------
                                    Active property flags
                                    ---------------------
   (+) Dipole Moment


------------------------------------------------------------------------------
                       ORCA ELECTRIC PROPERTIES CALCULATION
------------------------------------------------------------------------------

Dipole Moment Calculation                       ... on
Quadrupole Moment Calculation                   ... off
Polarizability Calculation                      ... off
GBWName                                         ... pbeh-3c.gbw
Electron density                                ... pbeh-3c.scfp
The origin for moment calculation is the CENTER OF MASS  = (-0.020536, -0.014403 -0.035855)

-------------
DIPOLE MOMENT
-------------
                                X             Y             Z
Electronic contribution:     -0.27257      -0.69127      -1.22077
Nuclear contribution   :      1.02682       0.72011       1.79275
                        -----------------------------------------
Total Dipole Moment    :      0.75425       0.02885       0.57197
                        -----------------------------------------
Magnitude (a.u.)       :      0.94703
Magnitude (Debye)      :      2.40717



--------------------
Rotational spectrum 
--------------------
 
Rotational constants in cm-1:     0.205203     0.062738     0.062598 
Rotational constants in MHz :  6151.830754  1880.833927  1876.650664 

 Dipole components along the rotational axes: 
x,y,z [a.u.] :    -0.741658     0.456360    -0.372225 
x,y,z [Debye]:    -1.885146     1.159974    -0.946120 

 

Timings for individual modules:

Sum of individual times         ...       97.168 sec (=   1.619 min)
GTO integral calculation        ...        2.989 sec (=   0.050 min)   3.1 %
SCF iterations                  ...       94.179 sec (=   1.570 min)  96.9 %
                             ****ORCA TERMINATED NORMALLY****
TOTAL RUN TIME: 0 days 0 hours 1 minutes 41 seconds 856 msec
