
                                 *****************
                                 * O   R   C   A *
                                 *****************

                                            #,                                       
                                            ###                                      
                                            ####                                     
                                            #####                                    
                                            ######                                   
                                           ########,                                 
                                     ,,################,,,,,                         
                               ,,#################################,,                 
                          ,,##########################################,,             
                       ,#########################################, ''#####,          
                    ,#############################################,,   '####,        
                  ,##################################################,,,,####,       
                ,###########''''           ''''###############################       
              ,#####''   ,,,,##########,,,,          '''####'''          '####       
            ,##' ,,,,###########################,,,                        '##       
           ' ,,###''''                  '''############,,,                           
         ,,##''                                '''############,,,,        ,,,,,,###''
      ,#''                                            '''#######################'''  
     '                                                          ''''####''''         
             ,#######,   #######,   ,#######,      ##                                
            ,#'     '#,  ##    ##  ,#'     '#,    #''#        ######   ,####,        
            ##       ##  ##   ,#'  ##            #'  '#       #        #'  '#        
            ##       ##  #######   ##           ,######,      #####,   #    #        
            '#,     ,#'  ##    ##  '#,     ,#' ,#      #,         ##   #,  ,#        
             '#######'   ##     ##  '#######'  #'      '#     #####' # '####'        



                  #######################################################
                  #                        -***-                        #
                  #          Department of theory and spectroscopy      #
                  #    Directorship and core code : Frank Neese         #
                  #        Max Planck Institute fuer Kohlenforschung    #
                  #                Kaiser Wilhelm Platz 1               #
                  #                 D-45470 Muelheim/Ruhr               #
                  #                      Germany                        #
                  #                                                     #
                  #                  All rights reserved                #
                  #                        -***-                        #
                  #######################################################


                         Program Version 5.0.3 -  RELEASE  -


 With contributions from (in alphabetic order):
   Daniel Aravena         : Magnetic Suceptibility
   Michael Atanasov       : Ab Initio Ligand Field Theory (pilot matlab implementation)
   Alexander A. Auer      : GIAO ZORA, VPT2 properties, NMR spectrum
   Ute Becker             : Parallelization
   Giovanni Bistoni       : ED, misc. LED, open-shell LED, HFLD
   Martin Brehm           : Molecular dynamics
   Dmytro Bykov           : SCF Hessian
   Vijay G. Chilkuri      : MRCI spin determinant printing, contributions to CSF-ICE
   Dipayan Datta          : RHF DLPNO-CCSD density
   Achintya Kumar Dutta   : EOM-CC, STEOM-CC
   Dmitry Ganyushin       : Spin-Orbit,Spin-Spin,Magnetic field MRCI
   Miquel Garcia          : C-PCM and meta-GGA Hessian, CC/C-PCM, Gaussian charge scheme
   Yang Guo               : DLPNO-NEVPT2, F12-NEVPT2, CIM, IAO-localization
   Andreas Hansen         : Spin unrestricted coupled pair/coupled cluster methods
   Benjamin Helmich-Paris : MC-RPA, TRAH-SCF, COSX integrals
   Lee Huntington         : MR-EOM, pCC
   Robert Izsak           : Overlap fitted RIJCOSX, COSX-SCS-MP3, EOM
   Marcus Kettner         : VPT2
   Christian Kollmar      : KDIIS, OOCD, Brueckner-CCSD(T), CCSD density, CASPT2, CASPT2-K
   Simone Kossmann        : Meta GGA functionals, TD-DFT gradient, OOMP2, MP2 Hessian
   Martin Krupicka        : Initial AUTO-CI
   Lucas Lang             : DCDCAS
   Marvin Lechner         : AUTO-CI (C++ implementation), FIC-MRCC
   Dagmar Lenk            : GEPOL surface, SMD
   Dimitrios Liakos       : Extrapolation schemes; Compound Job, initial MDCI parallelization
   Dimitrios Manganas     : Further ROCIS development; embedding schemes
   Dimitrios Pantazis     : SARC Basis sets
   Anastasios Papadopoulos: AUTO-CI, single reference methods and gradients
   Taras Petrenko         : DFT Hessian,TD-DFT gradient, ASA, ECA, R-Raman, ABS, FL, XAS/XES, NRVS
   Peter Pinski           : DLPNO-MP2, DLPNO-MP2 Gradient
   Christoph Reimann      : Effective Core Potentials
   Marius Retegan         : Local ZFS, SOC
   Christoph Riplinger    : Optimizer, TS searches, QM/MM, DLPNO-CCSD(T), (RO)-DLPNO pert. Triples
   Tobias Risthaus        : Range-separated hybrids, TD-DFT gradient, RPA, STAB
   Michael Roemelt        : Original ROCIS implementation
   Masaaki Saitow         : Open-shell DLPNO-CCSD energy and density
   Barbara Sandhoefer     : DKH picture change effects
   Avijit Sen             : IP-ROCIS
   Kantharuban Sivalingam : CASSCF convergence, NEVPT2, FIC-MRCI
   Bernardo de Souza      : ESD, SOC TD-DFT
   Georgi Stoychev        : AutoAux, RI-MP2 NMR, DLPNO-MP2 response
   Willem Van den Heuvel  : Paramagnetic NMR
   Boris Wezisla          : Elementary symmetry handling
   Frank Wennmohs         : Technical directorship


 We gratefully acknowledge several colleagues who have allowed us to
 interface, adapt or use parts of their codes:
   Stefan Grimme, W. Hujo, H. Kruse, P. Pracht,  : VdW corrections, initial TS optimization,
                  C. Bannwarth, S. Ehlert          DFT functionals, gCP, sTDA/sTD-DF
   Ed Valeev, F. Pavosevic, A. Kumar             : LibInt (2-el integral package), F12 methods
   Garnet Chan, S. Sharma, J. Yang, R. Olivares  : DMRG
   Ulf Ekstrom                                   : XCFun DFT Library
   Mihaly Kallay                                 : mrcc  (arbitrary order and MRCC methods)
   Jiri Pittner, Ondrej Demel                    : Mk-CCSD
   Frank Weinhold                                : gennbo (NPA and NBO analysis)
   Christopher J. Cramer and Donald G. Truhlar   : smd solvation model
   Lars Goerigk                                  : TD-DFT with DH, B97 family of functionals
   V. Asgeirsson, H. Jonsson                     : NEB implementation
   FAccTs GmbH                                   : IRC, NEB, NEB-TS, DLPNO-Multilevel, CI-OPT
                                                   MM, QMMM, 2- and 3-layer-ONIOM, Crystal-QMMM,
                                                   LR-CPCM, SF, NACMEs, symmetry and pop. for TD-DFT,
                                                   nearIR, NL-DFT gradient (VV10), updates on ESD,
                                                   ML-optimized integration grids
   S Lehtola, MJT Oliveira, MAL Marques          : LibXC Library
   Liviu Ungur et al                             : ANISO software


 Your calculation uses the libint2 library for the computation of 2-el integrals
 For citations please refer to: http://libint.valeyev.net

 Your ORCA version has been built with support for libXC version: 5.1.0
 For citations please refer to: https://tddft.org/programs/libxc/

 This ORCA versions uses:
   CBLAS   interface :  Fast vector & matrix operations
   LAPACKE interface :  Fast linear algebra routines
   SCALAPACK package :  Parallel linear algebra routines
   Shared memory     :  Shared parallel matrices
   BLAS/LAPACK       :  OpenBLAS 0.3.15  USE64BITINT DYNAMIC_ARCH NO_AFFINITY Haswell SINGLE_THREADED
        Core in use  :  Haswell
   Copyright (c) 2011-2014, The OpenBLAS Project




***************************************
The coordinates will be read from file: gly.xyz
***************************************


Your calculation utilizes the geometrical counterpoise correction gCP
Please cite in your paper:
H.Kruse, S. Grimme J.Chem.Phys., 136, (2012), 154101 
   

Your calculation utilizes the atom-pairwise dispersion correction
with the Becke-Johnson damping scheme (D3BJ)
Cite in your paper:
S.Grimme, S.Ehrlich, L.Goerigk, J Comput Chem, (2011), 32, 1456–1465 
S.Grimme, J.Antony, S.Ehrlich and H.Krieg, J.Chem.Phys., 132, (2010), 154104 
   

Your calculation employs the composite approach PBEh-3c.
Please cite in your paper:
S. Grimme, J. G. Brandenburg, C. Bannwarth, A. Hansen J.Chem.Phys., 143, (2015), 054107 
   

================================================================================

----- Orbital basis set information -----
Your calculation utilizes the basis: def2-mSVP

----- AuxJ basis set information -----
Your calculation utilizes the auxiliary basis: def2/J
   F. Weigend, Phys. Chem. Chem. Phys. 8, 1057 (2006).

================================================================================
                                        WARNINGS
                       Please study these warnings very carefully!
================================================================================


INFO   : the flag for use of the SHARK integral package has been found!

================================================================================
                                       INPUT FILE
================================================================================
NAME = pbeh-3c.inp
|  1> ! PBEh-3c def2/J TightSCF DefGrid3
|  2> 
|  3> %maxcore 60000
|  4> 
|  5> %pal
|  6> nprocs 4
|  7> end
|  8> 
|  9> *xyzfile 0 1 gly.xyz
| 10> 
| 11>                          ****END OF INPUT****
================================================================================

                       ****************************
                       * Single Point Calculation *
                       ****************************

---------------------------------
CARTESIAN COORDINATES (ANGSTROEM)
---------------------------------
  N      0.506022   -1.598655    0.000000
  H      1.108915   -1.530207    0.809839
  C     -0.464254   -0.537584    0.000000
  C      0.095748    0.869951    0.000000
  H     -1.120802   -0.636704   -0.870436
  H     -1.120802   -0.636704    0.870436
  O      1.266143    1.149314    0.000000
  O     -0.871953    1.777257    0.000000
  H     -0.507931    2.673537    0.000000
  H      1.108915   -1.530207   -0.809839

----------------------------
CARTESIAN COORDINATES (A.U.)
----------------------------
  NO LB      ZA    FRAG     MASS         X           Y           Z
   0 N     7.0000    0    14.007    0.956242   -3.021020    0.000000
   1 H     1.0000    0     1.008    2.095545   -2.891672    1.530375
   2 C     6.0000    0    12.011   -0.877312   -1.015886    0.000000
   3 C     6.0000    0    12.011    0.180938    1.643970    0.000000
   4 H     1.0000    0     1.008   -2.118009   -1.203196   -1.644885
   5 H     1.0000    0     1.008   -2.118009   -1.203196    1.644885
   6 O     8.0000    0    15.999    2.392664    2.171889    0.000000
   7 O     8.0000    0    15.999   -1.647753    3.358529    0.000000
   8 H     1.0000    0     1.008   -0.959851    5.052253    0.000000
   9 H     1.0000    0     1.008    2.095545   -2.891672   -1.530375

--------------------------------
INTERNAL COORDINATES (ANGSTROEM)
--------------------------------
 N      0   0   0     0.000000000000     0.00000000     0.00000000
 H      1   0   0     1.011931497064     0.00000000     0.00000000
 C      1   2   0     1.437812947975   110.61789807     0.00000000
 C      3   1   2     1.514845727869   115.86364500    58.76609055
 H      3   1   2     1.094778177478   109.74804768   181.11963937
 H      3   1   2     1.094778177478   109.74804768   296.41254174
 O      4   3   1     1.203273805849   125.12043702     0.00000000
 O      4   3   1     1.326517869074   111.45944371   180.00000000
 H      8   4   3     0.967383250576   111.05068759   180.00000085
 H      1   2   3     1.011931497064   106.31574866   120.14230234

---------------------------
INTERNAL COORDINATES (A.U.)
---------------------------
 N      0   0   0     0.000000000000     0.00000000     0.00000000
 H      1   0   0     1.912273395740     0.00000000     0.00000000
 C      1   2   0     2.717072703478   110.61789807     0.00000000
 C      3   1   2     2.862643560813   115.86364500    58.76609055
 H      3   1   2     2.068830932827   109.74804768   181.11963937
 H      3   1   2     2.068830932827   109.74804768   296.41254174
 O      4   3   1     2.273857957176   125.12043702     0.00000000
 O      4   3   1     2.506755484303   111.45944371   180.00000000
 H      8   4   3     1.828089410131   111.05068759   180.00000085
 H      1   2   3     1.912273395740   106.31574866   120.14230234

---------------------
BASIS SET INFORMATION
---------------------
There are 4 groups of distinct atoms

 Group   1 Type N   : 8s4p1d contracted to 4s2p1d pattern {5111/31/1}
 Group   2 Type H   : 4s contracted to 2s pattern {31}
 Group   3 Type C   : 8s4p1d contracted to 4s2p1d pattern {5111/31/1}
 Group   4 Type O   : 8s4p1d contracted to 4s2p1d pattern {5111/31/1}

Atom   0N    basis set group =>   1
Atom   1H    basis set group =>   2
Atom   2C    basis set group =>   3
Atom   3C    basis set group =>   3
Atom   4H    basis set group =>   2
Atom   5H    basis set group =>   2
Atom   6O    basis set group =>   4
Atom   7O    basis set group =>   4
Atom   8H    basis set group =>   2
Atom   9H    basis set group =>   2
---------------------------------
AUXILIARY/J BASIS SET INFORMATION
---------------------------------
There are 4 groups of distinct atoms

 Group   1 Type N   : 12s5p4d2f1g contracted to 6s4p3d1f1g pattern {711111/2111/211/2/1}
 Group   2 Type H   : 5s2p1d contracted to 3s1p1d pattern {311/2/1}
 Group   3 Type C   : 12s5p4d2f1g contracted to 6s4p3d1f1g pattern {711111/2111/211/2/1}
 Group   4 Type O   : 12s5p4d2f1g contracted to 6s4p3d1f1g pattern {711111/2111/211/2/1}

Atom   0N    basis set group =>   1
Atom   1H    basis set group =>   2
Atom   2C    basis set group =>   3
Atom   3C    basis set group =>   3
Atom   4H    basis set group =>   2
Atom   5H    basis set group =>   2
Atom   6O    basis set group =>   4
Atom   7O    basis set group =>   4
Atom   8H    basis set group =>   2
Atom   9H    basis set group =>   2


           ************************************************************
           *        Program running with 4 parallel MPI-processes     *
           *              working on a common directory               *
           ************************************************************
------------------------------------------------------------------------------
                           ORCA GTO INTEGRAL CALCULATION
                           -- RI-GTO INTEGRALS CHOSEN --
------------------------------------------------------------------------------
------------------------------------------------------------------------------
                   ___                                                        
                  /   \      - P O W E R E D   B Y -                         
                 /     \                                                     
                 |  |  |   _    _      __       _____    __    __             
                 |  |  |  | |  | |    /  \     |  _  \  |  |  /  |          
                  \  \/   | |  | |   /    \    | | | |  |  | /  /          
                 / \  \   | |__| |  /  /\  \   | |_| |  |  |/  /          
                |  |  |   |  __  | /  /__\  \  |    /   |      \           
                |  |  |   | |  | | |   __   |  |    \   |  |\   \          
                \     /   | |  | | |  |  |  |  | |\  \  |  | \   \       
                 \___/    |_|  |_| |__|  |__|  |_| \__\ |__|  \__/        
                                                                              
                      - O R C A' S   B I G   F R I E N D -                    
                                      &                                       
                       - I N T E G R A L  F E E D E R -                       
                                                                              
 v1 FN, 2020, v2 2021                                                         
------------------------------------------------------------------------------


Reading SHARK input file pbeh-3c.SHARKINP.tmp ... ok
----------------------
SHARK INTEGRAL PACKAGE
----------------------

Number of atoms                             ...     10
Number of basis functions                   ...     85
Number of shells                            ...     45
Maximum angular momentum                    ...      2
Integral batch strategy                     ... SHARK/LIBINT Hybrid
RI-J (if used) integral strategy            ... SPLIT-RIJ (Revised 2003 algorithm where possible)
Printlevel                                  ...      1
Contraction scheme used                     ... SEGMENTED contraction
Coulomb Range Separation                    ... NOT USED
Exchange Range Separation                   ... NOT USED
Finite Nucleus Model                        ... NOT USED
Auxiliary Coulomb fitting basis             ... AVAILABLE
   # of basis functions in Aux-J            ...    300
   # of shells in Aux-J                     ...    100
   Maximum angular momentum in Aux-J        ...      4
Auxiliary J/K fitting basis                 ... NOT available
Auxiliary Correlation fitting basis         ... NOT available
Auxiliary 'external' fitting basis          ... NOT available
Integral threshold                          ...     2.500000e-11
Primitive cut-off                           ...     2.500000e-12
Primitive pair pre-selection threshold      ...     2.500000e-12

Calculating pre-screening integrals         ... done (  0.1 sec) Dimension = 45
Organizing shell pair data                  ... done (  0.2 sec)
Shell pair information
Total number of shell pairs                 ...      1035
Shell pairs after pre-screening             ...       986
Total number of primitive shell pairs       ...      3735
Primitive shell pairs kept                  ...      2717
          la=0 lb=0:    425 shell pairs
          la=1 lb=0:    295 shell pairs
          la=1 lb=1:     55 shell pairs
          la=2 lb=0:    146 shell pairs
          la=2 lb=1:     50 shell pairs
          la=2 lb=2:     15 shell pairs

Calculating one electron integrals          ... done (  0.1 sec)
Calculating RI/J V-Matrix + Cholesky decomp.... done (  0.1 sec)
Calculating Nuclear repulsion               ... done (  0.0 sec) ENN=    180.174723222035 Eh

SHARK setup successfully completed in   1.5 seconds

Maximum memory used throughout the entire GTOINT-calculation: 9.7 MB


           ************************************************************
           *        Program running with 4 parallel MPI-processes     *
           *              working on a common directory               *
           ************************************************************
-------------------------------------------------------------------------------
                                 ORCA SCF
-------------------------------------------------------------------------------

------------
SCF SETTINGS
------------
Hamiltonian:
 Density Functional     Method          .... DFT(GTOs)
 Exchange Functional    Exchange        .... PBE
   PBE kappa parameter   XKappa         ....  1.024500
   PBE mue parameter    XMuePBE         ....  0.123457
 Correlation Functional Correlation     .... PBE
   PBE beta parameter  CBetaPBE         ....  0.030000
 LDA part of GGA corr.  LDAOpt          .... PW91-LDA
 Gradients option       PostSCFGGA      .... off
 Hybrid DFT is turned on
   Fraction HF Exchange ScalHFX         ....  0.420000
   Scaling of DF-GGA-X  ScalDFX         ....  0.580000
   Scaling of DF-GGA-C  ScalDFC         ....  1.000000
   Scaling of DF-LDA-C  ScalLDAC        ....  1.000000
   Perturbative correction              ....  0.000000
   Density functional embedding theory  .... OFF
 RI-approximation to the Coulomb term is turned on
   Number of AuxJ basis functions       .... 300
   RIJ-ON(X) (HFX calculated with O(N)) .... on
   Number of AuxJ basis functions       .... 300
   RIJ-COSX (HFX calculated with COS-X)).... on


General Settings:
 Integral files         IntName         .... pbeh-3c
 Hartree-Fock type      HFTyp           .... RHF
 Total Charge           Charge          ....    0
 Multiplicity           Mult            ....    1
 Number of Electrons    NEL             ....   40
 Basis Dimension        Dim             ....   85
 Nuclear Repulsion      ENuc            ....    180.1747232220 Eh

Convergence Acceleration:
 DIIS                   CNVDIIS         .... on
   Start iteration      DIISMaxIt       ....    12
   Startup error        DIISStart       ....  0.200000
   # of expansion vecs  DIISMaxEq       ....     5
   Bias factor          DIISBfac        ....   1.050
   Max. coefficient     DIISMaxC        ....  10.000
 Trust-Rad. Augm. Hess. CNVTRAH         .... auto
   Auto Start mean grad. ratio tolernc. ....  1.125000
   Auto Start start iteration           ....    20
   Auto Start num. interpolation iter.  ....    10
   Max. Number of Micro iterations      ....    16
   Max. Number of Macro iterations      .... Maxiter - #DIIS iter
   Number of Davidson start vectors     ....     2
   Converg. threshold I  (grad. norm)   ....   1.000e-05
   Converg. threshold II (energy diff.) ....   1.000e-08
   Grad. Scal. Fac. for Micro threshold ....   0.100
   Minimum threshold for Micro iter.    ....   0.010
   NR start threshold (gradient norm)   ....   0.001
   Initial trust radius                 ....   0.400
   Minimum AH scaling param. (alpha)    ....   1.000
   Maximum AH scaling param. (alpha)    .... 1000.000
   Orbital update algorithm             .... Taylor
   White noise on init. David. guess    .... on
   Maximum white noise                  ....   0.010
   Quad. conv. algorithm                .... NR
   COSX micro iterations for RIJONX calc.... off
 SOSCF                  CNVSOSCF        .... on
   Start iteration      SOSCFMaxIt      ....   150
   Startup grad/error   SOSCFStart      ....  0.003300
 Level Shifting         CNVShift        .... on
   Level shift para.    LevelShift      ....    0.2500
   Turn off err/grad.   ShiftErr        ....    0.0010
 Zerner damping         CNVZerner       .... off
 Static damping         CNVDamp         .... on
   Fraction old density DampFac         ....    0.7000
   Max. Damping (<1)    DampMax         ....    0.9800
   Min. Damping (>=0)   DampMin         ....    0.0000
   Turn off err/grad.   DampErr         ....    0.1000
 Fernandez-Rico         CNVRico         .... off

SCF Procedure:
 Maximum # iterations   MaxIter         ....   125
 SCF integral mode      SCFMode         .... Direct
   Integral package                     .... SHARK and LIBINT hybrid scheme
 Reset frequency        DirectResetFreq ....    20
 Integral Threshold     Thresh          ....  2.500e-11 Eh
 Primitive CutOff       TCut            ....  2.500e-12 Eh

Convergence Tolerance:
 Convergence Check Mode ConvCheckMode   .... Total+1el-Energy
 Convergence forced     ConvForced      .... 0
 Energy Change          TolE            ....  1.000e-08 Eh
 1-El. energy change                    ....  1.000e-05 Eh
 Orbital Gradient       TolG            ....  1.000e-05
 Orbital Rotation angle TolX            ....  1.000e-05
 DIIS Error             TolErr          ....  5.000e-07


Diagonalization of the overlap matrix:
Smallest eigenvalue                        ... 5.467e-03
Time for diagonalization                   ...    0.002 sec
Threshold for overlap eigenvalues          ... 1.000e-08
Number of eigenvalues below threshold      ... 0
Time for construction of square roots      ...    0.003 sec
Total time needed                          ...    0.005 sec

--------------------------------
INITIAL GUESS: MINIMAL BASIS EHT
--------------------------------
The minimal basis has 30 functions
EHT matrix was diagonalized
Basis set overlap was calculated now projecting the orbitals
Using GuessMode=FMatrix for the initial guess
C*T matrix was formed
Effective Fockian was calculated
Effective Fockian was diagonalized
Initial density was built
                      ------------------
                      INITIAL GUESS DONE
                      ------------------
-------------------
DFT GRID GENERATION
-------------------

General Integration Accuracy     IntAcc      ... 4.959
Radial Grid Type                 RadialGrid  ... OptM3 with GC (2021)
Angular Grid (max. ang.)         AngularGrid ... 6 (Lebedev-590)
Angular grid pruning method      GridPruning ... 4 (adaptive)
Weight generation scheme         WeightScheme... Becke
Basis function cutoff            BFCut       ... 1.0000e-11
Integration weight cutoff        WCut        ... 1.0000e-14
Angular grids for H and He will be reduced by one unit
Partially contracted basis set               ... off
Rotationally invariant grid construction     ... off

Total number of grid points                  ...   116348
Total number of batches                      ...     1823
Average number of points per batch           ...       63
Average number of grid points per atom       ...    11635
Time for grid setup =    3.145 sec

--------------------
COSX GRID GENERATION
--------------------

GRIDX 1
-------
General Integration Accuracy     IntAcc      ... 4.020
Radial Grid Type                 RadialGrid  ... OptM3 with GC (2021)
Angular Grid (max. ang.)         AngularGrid ... 2 (Lebedev-110)
Angular grid pruning method      GridPruning ... 4 (adaptive)
Weight generation scheme         WeightScheme... Becke
Basis function cutoff            BFCut       ... 1.0000e-11
Integration weight cutoff        WCut        ... 1.0000e-14
Angular grids for H and He will be reduced by one unit
Partially contracted basis set               ... on
Rotationally invariant grid construction     ... off

Total number of grid points                  ...    13109
Total number of batches                      ...      210
Average number of points per batch           ...       62
Average number of grid points per atom       ...     1311
UseSFitting                                  ... on

GRIDX 2
-------
General Integration Accuracy     IntAcc      ... 4.338
Radial Grid Type                 RadialGrid  ... OptM3 with GC (2021)
Angular Grid (max. ang.)         AngularGrid ... 3 (Lebedev-194)
Angular grid pruning method      GridPruning ... 4 (adaptive)
Weight generation scheme         WeightScheme... Becke
Basis function cutoff            BFCut       ... 1.0000e-11
Integration weight cutoff        WCut        ... 1.0000e-14
Angular grids for H and He will be reduced by one unit
Partially contracted basis set               ... on
Rotationally invariant grid construction     ... off

Total number of grid points                  ...    28871
Total number of batches                      ...      456
Average number of points per batch           ...       63
Average number of grid points per atom       ...     2887
UseSFitting                                  ... on

GRIDX 3
-------
General Integration Accuracy     IntAcc      ... 4.871
Radial Grid Type                 RadialGrid  ... OptM3 with GC (2021)
Angular Grid (max. ang.)         AngularGrid ... 4 (Lebedev-302)
Angular grid pruning method      GridPruning ... 4 (adaptive)
Weight generation scheme         WeightScheme... Becke
Basis function cutoff            BFCut       ... 1.0000e-11
Integration weight cutoff        WCut        ... 1.0000e-14
Angular grids for H and He will be reduced by one unit
Partially contracted basis set               ... on
Rotationally invariant grid construction     ... off

Total number of grid points                  ...    55368
Total number of batches                      ...      870
Average number of points per batch           ...       63
Average number of grid points per atom       ...     5537
UseSFitting                                  ... on

Time for X-Grid setup             =    3.660 sec

--------------
SCF ITERATIONS
--------------
ITER       Energy         Delta-E        Max-DP      RMS-DP      [F,P]     Damp
               ***  Starting incremental Fock matrix formation  ***
  0   -282.8469092179   0.000000000000 0.19005894  0.00894569  0.5418438 0.7000
  1   -283.2285649595  -0.381655741551 0.10723174  0.00502927  0.2801178 0.7000
                               ***Turning on DIIS***
  2   -283.4123087248  -0.183743765340 0.05816374  0.00270766  0.1999667 0.7000
  3   -283.5383207521  -0.126012027271 0.03221844  0.00176765  0.1414797 0.7000
  4   -283.6287931777  -0.090472425584 0.07536517  0.00428189  0.0987871 0.0000
  5   -283.8454773847  -0.216684206979 0.01159524  0.00046233  0.0129043 0.0000
  6   -283.8458243134  -0.000346928745 0.00341539  0.00015821  0.0066618 0.0000
                      *** Initiating the SOSCF procedure ***
                           *** Shutting down DIIS ***
                      *** Re-Reading the Fockian *** 
                      *** Removing any level shift *** 
ITER      Energy       Delta-E        Grad      Rot      Max-DP    RMS-DP
  7   -283.84592764  -0.0001033313  0.000869  0.000869  0.002331  0.000087
               *** Restarting incremental Fock matrix formation ***
  8   -283.84592741   0.0000002301  0.000438  0.001006  0.001595  0.000071
  9   -283.84592861  -0.0000011933  0.000677  0.000812  0.000939  0.000033
 10   -283.84593120  -0.0000025891  0.000053  0.000090  0.000135  0.000008
 11   -283.84593120  -0.0000000075  0.000047  0.000031  0.000062  0.000003
 12   -283.84593124  -0.0000000343  0.000004  0.000008  0.000013  0.000001
                  ***Gradient check signals convergence***
              ***Rediagonalizing the Fockian in SOSCF/NRSCF***

               *****************************************************
               *                     SUCCESS                       *
               *           SCF CONVERGED AFTER  13 CYCLES          *
               *****************************************************

Old exchange energy                            =    -14.806666954 Eh
New exchange energy                            =    -14.806675093 Eh
Exchange energy change after final integration =     -0.000008139 Eh
Total energy after final integration           =   -283.845939379 Eh
Final COS-X integration done in                =     1.646 sec

----------------
TOTAL SCF ENERGY
----------------

Total Energy       :         -283.84593938 Eh           -7723.84068 eV

Components:
Nuclear Repulsion  :          180.17472322 Eh            4902.80347 eV
Electronic Energy  :         -464.02066260 Eh          -12626.64416 eV
One Electron Energy:         -744.50959678 Eh          -20259.13608 eV
Two Electron Energy:          280.48893418 Eh            7632.49193 eV
Max COSX asymmetry :            0.00000164 Eh               0.00004 eV

Virial components:
Potential Energy   :         -565.83282253 Eh          -15397.09387 eV
Kinetic Energy     :          281.98688315 Eh            7673.25319 eV
Virial Ratio       :            2.00659270


DFT components:
N(Alpha)           :       20.000000148560 electrons
N(Beta)            :       20.000000148560 electrons
N(Total)           :       40.000000297121 electrons
E(X)               :      -19.714130321542 Eh       
E(C)               :       -1.779504440975 Eh       
E(XC)              :      -21.493634762517 Eh       
DFET-embed. en.    :        0.000000000000 Eh       

---------------
SCF CONVERGENCE
---------------

  Last Energy change         ...   -6.2124e-10  Tolerance :   1.0000e-08
  Last MAX-Density change    ...    9.9920e-16  Tolerance :   1.0000e-07
  Last RMS-Density change    ...    4.8612e-17  Tolerance :   5.0000e-09
  Last Orbital Gradient      ...    1.9780e-06  Tolerance :   1.0000e-05
  Last Orbital Rotation      ...    1.0746e-06  Tolerance :   1.0000e-05

             **** THE GBW FILE WAS UPDATED (pbeh-3c.gbw) ****
             **** DENSITY pbeh-3c.scfp WAS UPDATED ****
             **** ENERGY FILE WAS UPDATED (pbeh-3c.en.tmp) ****
             **** THE GBW FILE WAS UPDATED (pbeh-3c.gbw) ****
             **** DENSITY pbeh-3c.scfp WAS UPDATED ****
----------------
ORBITAL ENERGIES
----------------

  NO   OCC          E(Eh)            E(eV) 
   0   2.0000     -19.547709      -531.9202 
   1   2.0000     -19.486442      -530.2530 
   2   2.0000     -14.616416      -397.7329 
   3   2.0000     -10.578892      -287.8663 
   4   2.0000     -10.478573      -285.1365 
   5   2.0000      -1.231330       -33.5062 
   6   2.0000      -1.130727       -30.7686 
   7   2.0000      -0.989730       -26.9319 
   8   2.0000      -0.808636       -22.0041 
   9   2.0000      -0.687679       -18.7127 
  10   2.0000      -0.577261       -15.7081 
  11   2.0000      -0.572293       -15.5729 
  12   2.0000      -0.558896       -15.2083 
  13   2.0000      -0.514210       -13.9924 
  14   2.0000      -0.489236       -13.3128 
  15   2.0000      -0.461800       -12.5662 
  16   2.0000      -0.428309       -11.6549 
  17   2.0000      -0.381584       -10.3834 
  18   2.0000      -0.343546        -9.3483 
  19   2.0000      -0.299966        -8.1625 
  20   0.0000       0.048312         1.3146 
  21   0.0000       0.123177         3.3518 
  22   0.0000       0.135428         3.6852 
  23   0.0000       0.190484         5.1833 
  24   0.0000       0.196745         5.3537 
  25   0.0000       0.248628         6.7655 
  26   0.0000       0.270497         7.3606 
  27   0.0000       0.289908         7.8888 
  28   0.0000       0.335107         9.1187 
  29   0.0000       0.403996        10.9933 
  30   0.0000       0.524725        14.2785 
  31   0.0000       0.550614        14.9830 
  32   0.0000       0.563548        15.3349 
  33   0.0000       0.609638        16.5891 
  34   0.0000       0.616238        16.7687 
  35   0.0000       0.704939        19.1824 
  36   0.0000       0.774990        21.0886 
  37   0.0000       0.813145        22.1268 
  38   0.0000       0.868830        23.6421 
  39   0.0000       0.876949        23.8630 
  40   0.0000       0.923325        25.1249 
  41   0.0000       0.978555        26.6278 
  42   0.0000       0.981902        26.7189 
  43   0.0000       1.022008        27.8103 
  44   0.0000       1.027850        27.9692 
  45   0.0000       1.054328        28.6897 
  46   0.0000       1.095030        29.7973 
  47   0.0000       1.098489        29.8914 
  48   0.0000       1.183561        32.2063 
  49   0.0000       1.187539        32.3146 
  50   0.0000       1.222065        33.2541 
  51   0.0000       1.406809        38.2812 
  52   0.0000       1.427816        38.8528 
  53   0.0000       1.450327        39.4654 
  54   0.0000       1.525722        41.5170 
  55   0.0000       1.637613        44.5617 
  56   0.0000       1.717522        46.7362 
  57   0.0000       1.750236        47.6264 
  58   0.0000       1.828205        49.7480 
  59   0.0000       1.831819        49.8463 
  60   0.0000       1.922283        52.3080 
  61   0.0000       1.945283        52.9338 
  62   0.0000       1.977164        53.8014 
  63   0.0000       2.015265        54.8382 
  64   0.0000       2.078087        56.5476 
  65   0.0000       2.126888        57.8756 
  66   0.0000       2.127478        57.8916 
  67   0.0000       2.175750        59.2052 
  68   0.0000       2.255201        61.3671 
  69   0.0000       2.363256        64.3075 
  70   0.0000       2.447097        66.5889 
  71   0.0000       2.484708        67.6123 
  72   0.0000       2.538133        69.0661 
  73   0.0000       2.587560        70.4111 
  74   0.0000       2.693665        73.2983 
  75   0.0000       2.743845        74.6638 
  76   0.0000       2.800527        76.2062 
  77   0.0000       2.935848        79.8885 
  78   0.0000       3.071337        83.5753 
  79   0.0000       3.187330        86.7317 
  80   0.0000      13.688382       372.4798 
  81   0.0000      14.079808       383.1311 
  82   0.0000      19.136515       520.7310 
  83   0.0000      25.546204       695.1475 
  84   0.0000      25.733756       700.2511 

                    ********************************
                    * MULLIKEN POPULATION ANALYSIS *
                    ********************************

-----------------------
MULLIKEN ATOMIC CHARGES
-----------------------
   0 N :   -0.719935
   1 H :    0.329023
   2 C :   -0.403016
   3 C :    0.484265
   4 H :    0.253629
   5 H :    0.253629
   6 O :   -0.394274
   7 O :   -0.577607
   8 H :    0.445264
   9 H :    0.329023
Sum of atomic charges:   -0.0000000

--------------------------------
MULLIKEN REDUCED ORBITAL CHARGES
--------------------------------
  0 N s       :     3.596396  s :     3.596396
      pz      :     1.212363  p :     4.087511
      px      :     1.260853
      py      :     1.614295
      dz2     :     0.004115  d :     0.036028
      dxz     :     0.016489
      dyz     :     0.002851
      dx2y2   :     0.006160
      dxy     :     0.006412
  1 H s       :     0.670977  s :     0.670977
  2 C s       :     3.309713  s :     3.309713
      pz      :     1.195252  p :     3.034714
      px      :     0.982715
      py      :     0.856747
      dz2     :     0.009024  d :     0.058589
      dxz     :     0.014683
      dyz     :     0.003557
      dx2y2   :     0.018453
      dxy     :     0.012872
  3 C s       :     2.962048  s :     2.962048
      pz      :     0.729406  p :     2.414573
      px      :     0.815943
      py      :     0.869225
      dz2     :     0.007235  d :     0.139114
      dxz     :     0.028671
      dyz     :     0.009239
      dx2y2   :     0.036084
      dxy     :     0.057886
  4 H s       :     0.746371  s :     0.746371
  5 H s       :     0.746371  s :     0.746371
  6 O s       :     3.749577  s :     3.749577
      pz      :     1.429188  p :     4.613909
      px      :     1.415405
      py      :     1.769317
      dz2     :     0.002688  d :     0.030788
      dxz     :     0.011426
      dyz     :     0.000668
      dx2y2   :     0.008620
      dxy     :     0.007386
  7 O s       :     3.789432  s :     3.789432
      pz      :     1.810803  p :     4.758537
      px      :     1.649403
      py      :     1.298331
      dz2     :     0.004793  d :     0.029638
      dxz     :     0.004943
      dyz     :     0.000711
      dx2y2   :     0.007248
      dxy     :     0.011943
  8 H s       :     0.554736  s :     0.554736
  9 H s       :     0.670977  s :     0.670977


                     *******************************
                     * LOEWDIN POPULATION ANALYSIS *
                     *******************************

----------------------
LOEWDIN ATOMIC CHARGES
----------------------
   0 N :   -0.452037
   1 H :    0.230273
   2 C :   -0.210381
   3 C :    0.094181
   4 H :    0.147125
   5 H :    0.147125
   6 O :   -0.235092
   7 O :   -0.286573
   8 H :    0.335105
   9 H :    0.230273

-------------------------------
LOEWDIN REDUCED ORBITAL CHARGES
-------------------------------
  0 N s       :     3.228749  s :     3.228749
      pz      :     1.221753  p :     4.157604
      px      :     1.307940
      py      :     1.627911
      dz2     :     0.008912  d :     0.065684
      dxz     :     0.028195
      dyz     :     0.004793
      dx2y2   :     0.010680
      dxy     :     0.013103
  1 H s       :     0.769727  s :     0.769727
  2 C s       :     2.907747  s :     2.907747
      pz      :     1.134760  p :     3.181205
      px      :     1.041763
      py      :     1.004682
      dz2     :     0.017819  d :     0.121428
      dxz     :     0.026011
      dyz     :     0.006841
      dx2y2   :     0.040595
      dxy     :     0.030162
  3 C s       :     2.841875  s :     2.841875
      pz      :     0.742795  p :     2.748208
      px      :     1.014807
      py      :     0.990607
      dz2     :     0.018307  d :     0.315737
      dxz     :     0.058528
      dyz     :     0.018392
      dx2y2   :     0.085363
      dxy     :     0.135146
  4 H s       :     0.852875  s :     0.852875
  5 H s       :     0.852875  s :     0.852875
  6 O s       :     3.515804  s :     3.515804
      pz      :     1.413394  p :     4.661770
      px      :     1.493715
      py      :     1.754661
      dz2     :     0.006663  d :     0.057518
      dxz     :     0.014463
      dyz     :     0.000785
      dx2y2   :     0.019113
      dxy     :     0.016495
  7 O s       :     3.482066  s :     3.482066
      pz      :     1.786007  p :     4.749367
      px      :     1.656282
      py      :     1.307079
      dz2     :     0.007698  d :     0.055140
      dxz     :     0.006194
      dyz     :     0.002492
      dx2y2   :     0.016045
      dxy     :     0.022712
  8 H s       :     0.664895  s :     0.664895
  9 H s       :     0.769727  s :     0.769727


                      *****************************
                      * MAYER POPULATION ANALYSIS *
                      *****************************

  NA   - Mulliken gross atomic population
  ZA   - Total nuclear charge
  QA   - Mulliken gross atomic charge
  VA   - Mayer's total valence
  BVA  - Mayer's bonded valence
  FA   - Mayer's free valence

  ATOM       NA         ZA         QA         VA         BVA        FA
  0 N      7.7199     7.0000    -0.7199     2.8084     2.8084    -0.0000
  1 H      0.6710     1.0000     0.3290     0.8571     0.8571    -0.0000
  2 C      6.4030     6.0000    -0.4030     3.7602     3.7602    -0.0000
  3 C      5.5157     6.0000     0.4843     4.1004     4.1004    -0.0000
  4 H      0.7464     1.0000     0.2536     0.8943     0.8943    -0.0000
  5 H      0.7464     1.0000     0.2536     0.8943     0.8943    -0.0000
  6 O      8.3943     8.0000    -0.3943     2.2131     2.2131    -0.0000
  7 O      8.5776     8.0000    -0.5776     1.9955     1.9955    -0.0000
  8 H      0.5547     1.0000     0.4453     0.7925     0.7925    -0.0000
  9 H      0.6710     1.0000     0.3290     0.8571     0.8571    -0.0000

  Mayer bond orders larger than 0.100000
B(  0-N ,  1-H ) :   0.8559 B(  0-N ,  2-C ) :   1.0883 B(  0-N ,  9-H ) :   0.8559 
B(  2-C ,  3-C ) :   0.8845 B(  2-C ,  4-H ) :   0.8956 B(  2-C ,  5-H ) :   0.8956 
B(  3-C ,  6-O ) :   2.0739 B(  3-C ,  7-O ) :   1.1500 B(  7-O ,  8-H ) :   0.7546 


-------
TIMINGS
-------

Total SCF time: 0 days 0 hours 0 min 59 sec 

Total time                  ....      59.052 sec
Sum of individual times     ....      53.649 sec  ( 90.9%)

Fock matrix formation       ....      43.006 sec  ( 72.8%)
  Split-RI-J                ....       5.723 sec  ( 13.3% of F)
  Chain of spheres X        ....      12.414 sec  ( 28.9% of F)
  XC integration            ....      11.191 sec  ( 26.0% of F)
    Basis function eval.    ....       1.785 sec  ( 16.0% of XC)
    Density eval.           ....       1.050 sec  (  9.4% of XC)
    XC-Functional eval.     ....       0.941 sec  (  8.4% of XC)
    XC-Potential eval.      ....       0.567 sec  (  5.1% of XC)
Diagonalization             ....       0.771 sec  (  1.3%)
Density matrix formation    ....       0.044 sec  (  0.1%)
Population analysis         ....       0.612 sec  (  1.0%)
Initial guess               ....       0.168 sec  (  0.3%)
Orbital Transformation      ....       0.000 sec  (  0.0%)
Orbital Orthonormalization  ....       0.000 sec  (  0.0%)
DIIS solution               ....       1.635 sec  (  2.8%)
SOSCF solution              ....       0.607 sec  (  1.0%)
Grid generation             ....       6.806 sec  ( 11.5%)

Maximum memory used throughout the entire SCF-calculation: 48.7 MB


-------------------------------------------------------------------------------
                          DFT DISPERSION CORRECTION                            
                                                                               
                              DFTD3 V3.1  Rev 1                                
                          USING Becke-Johnson damping                          
-------------------------------------------------------------------------------
The PBEh-3c composite method is recognized
Using three-body term ABC
Active option DFTDOPT                   ...         4   

molecular C6(AA) [au] = 824.416065 


            DFT-D V3
 parameters
 s6 scaling factor         :     1.0000 
 a1 scaling factor         :     0.4860 
 s8 scaling factor         :     0.0000 
 a2 scaling factor         :     4.5000 
 Damping factor alpha9(ATM):    16.0000 
 ad hoc parameters k1-k3   :    16.0000     1.3333    -4.0000 

 Edisp/kcal,au: -2.209271905076  -0.003520698509 
 E6   /kcal   :  -2.213563381 
 E8   /kcal   :  -0.000000000 
 E6(ABC)      :   0.004291476 
 % E8         :   0.000000000 
 % E6(ABC)    :  -0.194248416 

-------------------------   ----------------
Dispersion correction           -0.003520699
-------------------------   ----------------

------------------   -----------------
gCP correction             0.021721693
------------------   -----------------

-------------------------   --------------------
FINAL SINGLE POINT ENERGY      -283.827738384522
-------------------------   --------------------


                            ***************************************
                            *     ORCA property calculations      *
                            ***************************************

                                    ---------------------
                                    Active property flags
                                    ---------------------
   (+) Dipole Moment


------------------------------------------------------------------------------
                       ORCA ELECTRIC PROPERTIES CALCULATION
------------------------------------------------------------------------------

Dipole Moment Calculation                       ... on
Quadrupole Moment Calculation                   ... off
Polarizability Calculation                      ... off
GBWName                                         ... pbeh-3c.gbw
Electron density                                ... pbeh-3c.scfp
The origin for moment calculation is the CENTER OF MASS  = ( 0.212276,  0.673359  0.000000)

-------------
DIPOLE MOMENT
-------------
                                X             Y             Z
Electronic contribution:      0.68779       3.65852      -0.00000
Nuclear contribution   :     -1.02109      -3.20715       0.00000
                        -----------------------------------------
Total Dipole Moment    :     -0.33330       0.45137      -0.00000
                        -----------------------------------------
Magnitude (a.u.)       :      0.56109
Magnitude (Debye)      :      1.42618



--------------------
Rotational spectrum 
--------------------
 
Rotational constants in cm-1:     0.349008     0.130620     0.098203 
Rotational constants in MHz : 10463.010900  3915.878488  2944.049489 

 Dipole components along the rotational axes: 
x,y,z [a.u.] :     0.506912     0.240552    -0.000000 
x,y,z [Debye]:     1.288468     0.611434    -0.000000 

 

Timings for individual modules:

Sum of individual times         ...       61.613 sec (=   1.027 min)
GTO integral calculation        ...        1.892 sec (=   0.032 min)   3.1 %
SCF iterations                  ...       59.721 sec (=   0.995 min)  96.9 %
                             ****ORCA TERMINATED NORMALLY****
TOTAL RUN TIME: 0 days 0 hours 1 minutes 5 seconds 506 msec
