
                                 *****************
                                 * O   R   C   A *
                                 *****************

                                            #,                                       
                                            ###                                      
                                            ####                                     
                                            #####                                    
                                            ######                                   
                                           ########,                                 
                                     ,,################,,,,,                         
                               ,,#################################,,                 
                          ,,##########################################,,             
                       ,#########################################, ''#####,          
                    ,#############################################,,   '####,        
                  ,##################################################,,,,####,       
                ,###########''''           ''''###############################       
              ,#####''   ,,,,##########,,,,          '''####'''          '####       
            ,##' ,,,,###########################,,,                        '##       
           ' ,,###''''                  '''############,,,                           
         ,,##''                                '''############,,,,        ,,,,,,###''
      ,#''                                            '''#######################'''  
     '                                                          ''''####''''         
             ,#######,   #######,   ,#######,      ##                                
            ,#'     '#,  ##    ##  ,#'     '#,    #''#        ######   ,####,        
            ##       ##  ##   ,#'  ##            #'  '#       #        #'  '#        
            ##       ##  #######   ##           ,######,      #####,   #    #        
            '#,     ,#'  ##    ##  '#,     ,#' ,#      #,         ##   #,  ,#        
             '#######'   ##     ##  '#######'  #'      '#     #####' # '####'        



                  #######################################################
                  #                        -***-                        #
                  #          Department of theory and spectroscopy      #
                  #    Directorship and core code : Frank Neese         #
                  #        Max Planck Institute fuer Kohlenforschung    #
                  #                Kaiser Wilhelm Platz 1               #
                  #                 D-45470 Muelheim/Ruhr               #
                  #                      Germany                        #
                  #                                                     #
                  #                  All rights reserved                #
                  #                        -***-                        #
                  #######################################################


                         Program Version 5.0.3 -  RELEASE  -


 With contributions from (in alphabetic order):
   Daniel Aravena         : Magnetic Suceptibility
   Michael Atanasov       : Ab Initio Ligand Field Theory (pilot matlab implementation)
   Alexander A. Auer      : GIAO ZORA, VPT2 properties, NMR spectrum
   Ute Becker             : Parallelization
   Giovanni Bistoni       : ED, misc. LED, open-shell LED, HFLD
   Martin Brehm           : Molecular dynamics
   Dmytro Bykov           : SCF Hessian
   Vijay G. Chilkuri      : MRCI spin determinant printing, contributions to CSF-ICE
   Dipayan Datta          : RHF DLPNO-CCSD density
   Achintya Kumar Dutta   : EOM-CC, STEOM-CC
   Dmitry Ganyushin       : Spin-Orbit,Spin-Spin,Magnetic field MRCI
   Miquel Garcia          : C-PCM and meta-GGA Hessian, CC/C-PCM, Gaussian charge scheme
   Yang Guo               : DLPNO-NEVPT2, F12-NEVPT2, CIM, IAO-localization
   Andreas Hansen         : Spin unrestricted coupled pair/coupled cluster methods
   Benjamin Helmich-Paris : MC-RPA, TRAH-SCF, COSX integrals
   Lee Huntington         : MR-EOM, pCC
   Robert Izsak           : Overlap fitted RIJCOSX, COSX-SCS-MP3, EOM
   Marcus Kettner         : VPT2
   Christian Kollmar      : KDIIS, OOCD, Brueckner-CCSD(T), CCSD density, CASPT2, CASPT2-K
   Simone Kossmann        : Meta GGA functionals, TD-DFT gradient, OOMP2, MP2 Hessian
   Martin Krupicka        : Initial AUTO-CI
   Lucas Lang             : DCDCAS
   Marvin Lechner         : AUTO-CI (C++ implementation), FIC-MRCC
   Dagmar Lenk            : GEPOL surface, SMD
   Dimitrios Liakos       : Extrapolation schemes; Compound Job, initial MDCI parallelization
   Dimitrios Manganas     : Further ROCIS development; embedding schemes
   Dimitrios Pantazis     : SARC Basis sets
   Anastasios Papadopoulos: AUTO-CI, single reference methods and gradients
   Taras Petrenko         : DFT Hessian,TD-DFT gradient, ASA, ECA, R-Raman, ABS, FL, XAS/XES, NRVS
   Peter Pinski           : DLPNO-MP2, DLPNO-MP2 Gradient
   Christoph Reimann      : Effective Core Potentials
   Marius Retegan         : Local ZFS, SOC
   Christoph Riplinger    : Optimizer, TS searches, QM/MM, DLPNO-CCSD(T), (RO)-DLPNO pert. Triples
   Tobias Risthaus        : Range-separated hybrids, TD-DFT gradient, RPA, STAB
   Michael Roemelt        : Original ROCIS implementation
   Masaaki Saitow         : Open-shell DLPNO-CCSD energy and density
   Barbara Sandhoefer     : DKH picture change effects
   Avijit Sen             : IP-ROCIS
   Kantharuban Sivalingam : CASSCF convergence, NEVPT2, FIC-MRCI
   Bernardo de Souza      : ESD, SOC TD-DFT
   Georgi Stoychev        : AutoAux, RI-MP2 NMR, DLPNO-MP2 response
   Willem Van den Heuvel  : Paramagnetic NMR
   Boris Wezisla          : Elementary symmetry handling
   Frank Wennmohs         : Technical directorship


 We gratefully acknowledge several colleagues who have allowed us to
 interface, adapt or use parts of their codes:
   Stefan Grimme, W. Hujo, H. Kruse, P. Pracht,  : VdW corrections, initial TS optimization,
                  C. Bannwarth, S. Ehlert          DFT functionals, gCP, sTDA/sTD-DF
   Ed Valeev, F. Pavosevic, A. Kumar             : LibInt (2-el integral package), F12 methods
   Garnet Chan, S. Sharma, J. Yang, R. Olivares  : DMRG
   Ulf Ekstrom                                   : XCFun DFT Library
   Mihaly Kallay                                 : mrcc  (arbitrary order and MRCC methods)
   Jiri Pittner, Ondrej Demel                    : Mk-CCSD
   Frank Weinhold                                : gennbo (NPA and NBO analysis)
   Christopher J. Cramer and Donald G. Truhlar   : smd solvation model
   Lars Goerigk                                  : TD-DFT with DH, B97 family of functionals
   V. Asgeirsson, H. Jonsson                     : NEB implementation
   FAccTs GmbH                                   : IRC, NEB, NEB-TS, DLPNO-Multilevel, CI-OPT
                                                   MM, QMMM, 2- and 3-layer-ONIOM, Crystal-QMMM,
                                                   LR-CPCM, SF, NACMEs, symmetry and pop. for TD-DFT,
                                                   nearIR, NL-DFT gradient (VV10), updates on ESD,
                                                   ML-optimized integration grids
   S Lehtola, MJT Oliveira, MAL Marques          : LibXC Library
   Liviu Ungur et al                             : ANISO software


 Your calculation uses the libint2 library for the computation of 2-el integrals
 For citations please refer to: http://libint.valeyev.net

 Your ORCA version has been built with support for libXC version: 5.1.0
 For citations please refer to: https://tddft.org/programs/libxc/

 This ORCA versions uses:
   CBLAS   interface :  Fast vector & matrix operations
   LAPACKE interface :  Fast linear algebra routines
   SCALAPACK package :  Parallel linear algebra routines
   Shared memory     :  Shared parallel matrices
   BLAS/LAPACK       :  OpenBLAS 0.3.15  USE64BITINT DYNAMIC_ARCH NO_AFFINITY Haswell SINGLE_THREADED
        Core in use  :  Haswell
   Copyright (c) 2011-2014, The OpenBLAS Project




***************************************
The coordinates will be read from file: R49.xyz
***************************************


Your calculation utilizes the geometrical counterpoise correction gCP
Please cite in your paper:
H.Kruse, S. Grimme J.Chem.Phys., 136, (2012), 154101 
   

Your calculation utilizes the atom-pairwise dispersion correction
with the Becke-Johnson damping scheme (D3BJ)
Cite in your paper:
S.Grimme, S.Ehrlich, L.Goerigk, J Comput Chem, (2011), 32, 1456–1465 
S.Grimme, J.Antony, S.Ehrlich and H.Krieg, J.Chem.Phys., 132, (2010), 154104 
   

Your calculation employs the composite approach PBEh-3c.
Please cite in your paper:
S. Grimme, J. G. Brandenburg, C. Bannwarth, A. Hansen J.Chem.Phys., 143, (2015), 054107 
   

================================================================================

----- Orbital basis set information -----
Your calculation utilizes the basis: def2-mSVP

----- AuxJ basis set information -----
Your calculation utilizes the auxiliary basis: def2/J
   F. Weigend, Phys. Chem. Chem. Phys. 8, 1057 (2006).

================================================================================
                                        WARNINGS
                       Please study these warnings very carefully!
================================================================================


INFO   : the flag for use of the SHARK integral package has been found!

================================================================================
                                       INPUT FILE
================================================================================
NAME = pbeh-3c.inp
|  1> ! PBEh-3c def2/J TightSCF DefGrid3
|  2> 
|  3> %maxcore 60000
|  4> 
|  5> %pal
|  6> nprocs 4
|  7> end
|  8> 
|  9> *xyzfile 0 1 R49.xyz
| 10> 
| 11>                          ****END OF INPUT****
================================================================================

                       ****************************
                       * Single Point Calculation *
                       ****************************

---------------------------------
CARTESIAN COORDINATES (ANGSTROEM)
---------------------------------
  C      1.190986   -0.114132    0.000000
  C      0.582650   -1.539955    0.000000
  C      0.000000    0.834268    0.000000
  C     -0.901957   -1.295746    0.000000
  C     -1.200660    0.006390    0.000000
  C      0.043814    2.167026    0.000000
  H      1.817472    0.054360    0.875613
  H      1.817472    0.054360   -0.875613
  H      0.890349   -2.120423    0.873514
  H      0.890349   -2.120423   -0.873514
  H     -1.625191   -2.099219    0.000000
  H     -2.198823    0.421106    0.000000
  H      0.981853    2.705613    0.000000
  H     -0.862477    2.757523    0.000000

----------------------------
CARTESIAN COORDINATES (A.U.)
----------------------------
  NO LB      ZA    FRAG     MASS         X           Y           Z
   0 C     6.0000    0    12.011    2.250637   -0.215678    0.000000
   1 C     6.0000    0    12.011    1.101049   -2.910093    0.000000
   2 C     6.0000    0    12.011    0.000000    1.576538    0.000000
   3 C     6.0000    0    12.011   -1.704452   -2.448605    0.000000
   4 C     6.0000    0    12.011   -2.268918    0.012075    0.000000
   5 C     6.0000    0    12.011    0.082796    4.095085    0.000000
   6 H     1.0000    0     1.008    3.434524    0.102726    1.654669
   7 H     1.0000    0     1.008    3.434524    0.102726   -1.654669
   8 H     1.0000    0     1.008    1.682516   -4.007018    1.650702
   9 H     1.0000    0     1.008    1.682516   -4.007018   -1.650702
  10 H     1.0000    0     1.008   -3.071166   -3.966949    0.000000
  11 H     1.0000    0     1.008   -4.155173    0.795775    0.000000
  12 H     1.0000    0     1.008    1.855433    5.112867    0.000000
  13 H     1.0000    0     1.008   -1.629845    5.210963    0.000000

--------------------------------
INTERNAL COORDINATES (ANGSTROEM)
--------------------------------
 C      0   0   0     0.000000000000     0.00000000     0.00000000
 C      1   0   0     1.550175315696     0.00000000     0.00000000
 C      1   2   0     1.522468319644   105.42502474     0.00000000
 C      2   1   3     1.504558301698   103.76464774     0.00000000
 C      4   2   1     1.335957104206   112.26098063     0.00000000
 C      3   1   2     1.333477891308   126.64793197   180.00000000
 H      1   2   3     1.089757868935   111.58085286   120.22394957
 H      1   2   3     1.089757868935   111.58085286   239.77605043
 H      2   1   3     1.092999601777   112.20982513   239.68197280
 H      2   1   3     1.092999601777   112.20982513   120.31802720
 H      4   2   1     1.081034819275   122.65031675   180.00000000
 H      5   4   2     1.080887845982   125.48169045   180.00000085
 H      6   3   1     1.081662116598   121.74574041     0.00000000
 H      6   3   1     1.081688449801   121.20349227   180.00000000

---------------------------
INTERNAL COORDINATES (A.U.)
---------------------------
 C      0   0   0     0.000000000000     0.00000000     0.00000000
 C      1   0   0     2.929406806230     0.00000000     0.00000000
 C      1   2   0     2.877048171698   105.42502474     0.00000000
 C      2   1   3     2.843203142727   103.76464774     0.00000000
 C      4   2   1     2.524593053615   112.26098063     0.00000000
 C      3   1   2     2.519908020212   126.64793197   180.00000000
 H      1   2   3     2.059343924573   111.58085286   120.22394957
 H      1   2   3     2.059343924573   111.58085286   239.77605043
 H      2   1   3     2.065469911844   112.20982513   239.68197280
 H      2   1   3     2.065469911844   112.20982513   120.31802720
 H      4   2   1     2.042859749663   122.65031675   180.00000000
 H      5   4   2     2.042582010391   125.48169045   180.00000085
 H      6   3   1     2.044045169807   121.74574041     0.00000000
 H      6   3   1     2.044094932349   121.20349227   180.00000000

---------------------
BASIS SET INFORMATION
---------------------
There are 2 groups of distinct atoms

 Group   1 Type C   : 8s4p1d contracted to 4s2p1d pattern {5111/31/1}
 Group   2 Type H   : 4s contracted to 2s pattern {31}

Atom   0C    basis set group =>   1
Atom   1C    basis set group =>   1
Atom   2C    basis set group =>   1
Atom   3C    basis set group =>   1
Atom   4C    basis set group =>   1
Atom   5C    basis set group =>   1
Atom   6H    basis set group =>   2
Atom   7H    basis set group =>   2
Atom   8H    basis set group =>   2
Atom   9H    basis set group =>   2
Atom  10H    basis set group =>   2
Atom  11H    basis set group =>   2
Atom  12H    basis set group =>   2
Atom  13H    basis set group =>   2
---------------------------------
AUXILIARY/J BASIS SET INFORMATION
---------------------------------
There are 2 groups of distinct atoms

 Group   1 Type C   : 12s5p4d2f1g contracted to 6s4p3d1f1g pattern {711111/2111/211/2/1}
 Group   2 Type H   : 5s2p1d contracted to 3s1p1d pattern {311/2/1}

Atom   0C    basis set group =>   1
Atom   1C    basis set group =>   1
Atom   2C    basis set group =>   1
Atom   3C    basis set group =>   1
Atom   4C    basis set group =>   1
Atom   5C    basis set group =>   1
Atom   6H    basis set group =>   2
Atom   7H    basis set group =>   2
Atom   8H    basis set group =>   2
Atom   9H    basis set group =>   2
Atom  10H    basis set group =>   2
Atom  11H    basis set group =>   2
Atom  12H    basis set group =>   2
Atom  13H    basis set group =>   2


           ************************************************************
           *        Program running with 4 parallel MPI-processes     *
           *              working on a common directory               *
           ************************************************************
------------------------------------------------------------------------------
                           ORCA GTO INTEGRAL CALCULATION
                           -- RI-GTO INTEGRALS CHOSEN --
------------------------------------------------------------------------------
------------------------------------------------------------------------------
                   ___                                                        
                  /   \      - P O W E R E D   B Y -                         
                 /     \                                                     
                 |  |  |   _    _      __       _____    __    __             
                 |  |  |  | |  | |    /  \     |  _  \  |  |  /  |          
                  \  \/   | |  | |   /    \    | | | |  |  | /  /          
                 / \  \   | |__| |  /  /\  \   | |_| |  |  |/  /          
                |  |  |   |  __  | /  /__\  \  |    /   |      \           
                |  |  |   | |  | | |   __   |  |    \   |  |\   \          
                \     /   | |  | | |  |  |  |  | |\  \  |  | \   \       
                 \___/    |_|  |_| |__|  |__|  |_| \__\ |__|  \__/        
                                                                              
                      - O R C A' S   B I G   F R I E N D -                    
                                      &                                       
                       - I N T E G R A L  F E E D E R -                       
                                                                              
 v1 FN, 2020, v2 2021                                                         
------------------------------------------------------------------------------


Reading SHARK input file pbeh-3c.SHARKINP.tmp ... ok
----------------------
SHARK INTEGRAL PACKAGE
----------------------

Number of atoms                             ...     14
Number of basis functions                   ...    106
Number of shells                            ...     58
Maximum angular momentum                    ...      2
Integral batch strategy                     ... SHARK/LIBINT Hybrid
RI-J (if used) integral strategy            ... SPLIT-RIJ (Revised 2003 algorithm where possible)
Printlevel                                  ...      1
Contraction scheme used                     ... SEGMENTED contraction
Coulomb Range Separation                    ... NOT USED
Exchange Range Separation                   ... NOT USED
Finite Nucleus Model                        ... NOT USED
Auxiliary Coulomb fitting basis             ... AVAILABLE
   # of basis functions in Aux-J            ...    382
   # of shells in Aux-J                     ...    130
   Maximum angular momentum in Aux-J        ...      4
Auxiliary J/K fitting basis                 ... NOT available
Auxiliary Correlation fitting basis         ... NOT available
Auxiliary 'external' fitting basis          ... NOT available
Integral threshold                          ...     2.500000e-11
Primitive cut-off                           ...     2.500000e-12
Primitive pair pre-selection threshold      ...     2.500000e-12

Calculating pre-screening integrals         ... done (  0.1 sec) Dimension = 58
Organizing shell pair data                  ... done (  0.1 sec)
Shell pair information
Total number of shell pairs                 ...      1711
Shell pairs after pre-screening             ...      1638
Total number of primitive shell pairs       ...      6207
Primitive shell pairs kept                  ...      4446
          la=0 lb=0:    753 shell pairs
          la=1 lb=0:    480 shell pairs
          la=1 lb=1:     78 shell pairs
          la=2 lb=0:    234 shell pairs
          la=2 lb=1:     72 shell pairs
          la=2 lb=2:     21 shell pairs

Calculating one electron integrals          ... done (  0.0 sec)
Calculating RI/J V-Matrix + Cholesky decomp.... done (  0.0 sec)
Calculating Nuclear repulsion               ... done (  0.0 sec) ENN=    217.243311885100 Eh

SHARK setup successfully completed in   0.8 seconds

Maximum memory used throughout the entire GTOINT-calculation: 10.4 MB


           ************************************************************
           *        Program running with 4 parallel MPI-processes     *
           *              working on a common directory               *
           ************************************************************
-------------------------------------------------------------------------------
                                 ORCA SCF
-------------------------------------------------------------------------------

------------
SCF SETTINGS
------------
Hamiltonian:
 Density Functional     Method          .... DFT(GTOs)
 Exchange Functional    Exchange        .... PBE
   PBE kappa parameter   XKappa         ....  1.024500
   PBE mue parameter    XMuePBE         ....  0.123457
 Correlation Functional Correlation     .... PBE
   PBE beta parameter  CBetaPBE         ....  0.030000
 LDA part of GGA corr.  LDAOpt          .... PW91-LDA
 Gradients option       PostSCFGGA      .... off
 Hybrid DFT is turned on
   Fraction HF Exchange ScalHFX         ....  0.420000
   Scaling of DF-GGA-X  ScalDFX         ....  0.580000
   Scaling of DF-GGA-C  ScalDFC         ....  1.000000
   Scaling of DF-LDA-C  ScalLDAC        ....  1.000000
   Perturbative correction              ....  0.000000
   Density functional embedding theory  .... OFF
 RI-approximation to the Coulomb term is turned on
   Number of AuxJ basis functions       .... 382
   RIJ-ON(X) (HFX calculated with O(N)) .... on
   Number of AuxJ basis functions       .... 382
   RIJ-COSX (HFX calculated with COS-X)).... on


General Settings:
 Integral files         IntName         .... pbeh-3c
 Hartree-Fock type      HFTyp           .... RHF
 Total Charge           Charge          ....    0
 Multiplicity           Mult            ....    1
 Number of Electrons    NEL             ....   44
 Basis Dimension        Dim             ....  106
 Nuclear Repulsion      ENuc            ....    217.2433118851 Eh

Convergence Acceleration:
 DIIS                   CNVDIIS         .... on
   Start iteration      DIISMaxIt       ....    12
   Startup error        DIISStart       ....  0.200000
   # of expansion vecs  DIISMaxEq       ....     5
   Bias factor          DIISBfac        ....   1.050
   Max. coefficient     DIISMaxC        ....  10.000
 Trust-Rad. Augm. Hess. CNVTRAH         .... auto
   Auto Start mean grad. ratio tolernc. ....  1.125000
   Auto Start start iteration           ....    20
   Auto Start num. interpolation iter.  ....    10
   Max. Number of Micro iterations      ....    16
   Max. Number of Macro iterations      .... Maxiter - #DIIS iter
   Number of Davidson start vectors     ....     2
   Converg. threshold I  (grad. norm)   ....   1.000e-05
   Converg. threshold II (energy diff.) ....   1.000e-08
   Grad. Scal. Fac. for Micro threshold ....   0.100
   Minimum threshold for Micro iter.    ....   0.010
   NR start threshold (gradient norm)   ....   0.001
   Initial trust radius                 ....   0.400
   Minimum AH scaling param. (alpha)    ....   1.000
   Maximum AH scaling param. (alpha)    .... 1000.000
   Orbital update algorithm             .... Taylor
   White noise on init. David. guess    .... on
   Maximum white noise                  ....   0.010
   Quad. conv. algorithm                .... NR
   COSX micro iterations for RIJONX calc.... off
 SOSCF                  CNVSOSCF        .... on
   Start iteration      SOSCFMaxIt      ....   150
   Startup grad/error   SOSCFStart      ....  0.003300
 Level Shifting         CNVShift        .... on
   Level shift para.    LevelShift      ....    0.2500
   Turn off err/grad.   ShiftErr        ....    0.0010
 Zerner damping         CNVZerner       .... off
 Static damping         CNVDamp         .... on
   Fraction old density DampFac         ....    0.7000
   Max. Damping (<1)    DampMax         ....    0.9800
   Min. Damping (>=0)   DampMin         ....    0.0000
   Turn off err/grad.   DampErr         ....    0.1000
 Fernandez-Rico         CNVRico         .... off

SCF Procedure:
 Maximum # iterations   MaxIter         ....   125
 SCF integral mode      SCFMode         .... Direct
   Integral package                     .... SHARK and LIBINT hybrid scheme
 Reset frequency        DirectResetFreq ....    20
 Integral Threshold     Thresh          ....  2.500e-11 Eh
 Primitive CutOff       TCut            ....  2.500e-12 Eh

Convergence Tolerance:
 Convergence Check Mode ConvCheckMode   .... Total+1el-Energy
 Convergence forced     ConvForced      .... 0
 Energy Change          TolE            ....  1.000e-08 Eh
 1-El. energy change                    ....  1.000e-05 Eh
 Orbital Gradient       TolG            ....  1.000e-05
 Orbital Rotation angle TolX            ....  1.000e-05
 DIIS Error             TolErr          ....  5.000e-07


Diagonalization of the overlap matrix:
Smallest eigenvalue                        ... 1.557e-03
Time for diagonalization                   ...    0.002 sec
Threshold for overlap eigenvalues          ... 1.000e-08
Number of eigenvalues below threshold      ... 0
Time for construction of square roots      ...    0.014 sec
Total time needed                          ...    0.016 sec

--------------------------------
INITIAL GUESS: MINIMAL BASIS EHT
--------------------------------
The minimal basis has 38 functions
EHT matrix was diagonalized
Basis set overlap was calculated now projecting the orbitals
Using GuessMode=FMatrix for the initial guess
C*T matrix was formed
Effective Fockian was calculated
Effective Fockian was diagonalized
Initial density was built
                      ------------------
                      INITIAL GUESS DONE
                      ------------------
-------------------
DFT GRID GENERATION
-------------------

General Integration Accuracy     IntAcc      ... 4.959
Radial Grid Type                 RadialGrid  ... OptM3 with GC (2021)
Angular Grid (max. ang.)         AngularGrid ... 6 (Lebedev-590)
Angular grid pruning method      GridPruning ... 4 (adaptive)
Weight generation scheme         WeightScheme... Becke
Basis function cutoff            BFCut       ... 1.0000e-11
Integration weight cutoff        WCut        ... 1.0000e-14
Angular grids for H and He will be reduced by one unit
Partially contracted basis set               ... off
Rotationally invariant grid construction     ... off

Total number of grid points                  ...   155648
Total number of batches                      ...     2438
Average number of points per batch           ...       63
Average number of grid points per atom       ...    11118
Time for grid setup =    4.041 sec

--------------------
COSX GRID GENERATION
--------------------

GRIDX 1
-------
General Integration Accuracy     IntAcc      ... 4.020
Radial Grid Type                 RadialGrid  ... OptM3 with GC (2021)
Angular Grid (max. ang.)         AngularGrid ... 2 (Lebedev-110)
Angular grid pruning method      GridPruning ... 4 (adaptive)
Weight generation scheme         WeightScheme... Becke
Basis function cutoff            BFCut       ... 1.0000e-11
Integration weight cutoff        WCut        ... 1.0000e-14
Angular grids for H and He will be reduced by one unit
Partially contracted basis set               ... on
Rotationally invariant grid construction     ... off

Total number of grid points                  ...    16951
Total number of batches                      ...      271
Average number of points per batch           ...       62
Average number of grid points per atom       ...     1211
UseSFitting                                  ... on

GRIDX 2
-------
General Integration Accuracy     IntAcc      ... 4.338
Radial Grid Type                 RadialGrid  ... OptM3 with GC (2021)
Angular Grid (max. ang.)         AngularGrid ... 3 (Lebedev-194)
Angular grid pruning method      GridPruning ... 4 (adaptive)
Weight generation scheme         WeightScheme... Becke
Basis function cutoff            BFCut       ... 1.0000e-11
Integration weight cutoff        WCut        ... 1.0000e-14
Angular grids for H and He will be reduced by one unit
Partially contracted basis set               ... on
Rotationally invariant grid construction     ... off

Total number of grid points                  ...    37165
Total number of batches                      ...      587
Average number of points per batch           ...       63
Average number of grid points per atom       ...     2655
UseSFitting                                  ... on

GRIDX 3
-------
General Integration Accuracy     IntAcc      ... 4.871
Radial Grid Type                 RadialGrid  ... OptM3 with GC (2021)
Angular Grid (max. ang.)         AngularGrid ... 4 (Lebedev-302)
Angular grid pruning method      GridPruning ... 4 (adaptive)
Weight generation scheme         WeightScheme... Becke
Basis function cutoff            BFCut       ... 1.0000e-11
Integration weight cutoff        WCut        ... 1.0000e-14
Angular grids for H and He will be reduced by one unit
Partially contracted basis set               ... on
Rotationally invariant grid construction     ... off

Total number of grid points                  ...    72323
Total number of batches                      ...     1137
Average number of points per batch           ...       63
Average number of grid points per atom       ...     5166
UseSFitting                                  ... on

Time for X-Grid setup             =    3.873 sec

--------------
SCF ITERATIONS
--------------
ITER       Energy         Delta-E        Max-DP      RMS-DP      [F,P]     Damp
               ***  Starting incremental Fock matrix formation  ***
  0   -232.3641605676   0.000000000000 0.11437766  0.00481857  0.4208319 0.7000
  1   -232.5214367744  -0.157276206855 0.08237295  0.00355672  0.2964940 0.7000
  2   -232.6339402478  -0.112503473390 0.05998890  0.00263387  0.2076860 0.7000
                               ***Turning on DIIS***
  3   -232.7141318055  -0.080191557642 0.04356610  0.00195166  0.1455443 0.7000
  4   -232.7711929961  -0.057061190604 0.03243580  0.00152663  0.1020557 0.7000
  5   -232.8116769808  -0.040483984711 0.07760327  0.00377968  0.0715522 0.0000
                      *** Initiating the SOSCF procedure ***
                           *** Shutting down DIIS ***
                      *** Re-Reading the Fockian *** 
                      *** Removing any level shift *** 
ITER      Energy       Delta-E        Grad      Rot      Max-DP    RMS-DP
  6   -232.90823768  -0.0965606957  0.002125  0.002125  0.003562  0.000120
               *** Restarting incremental Fock matrix formation ***
  7   -232.90828457  -0.0000468890  0.000647  0.000867  0.001791  0.000058
  8   -232.90829020  -0.0000056357  0.000281  0.000794  0.001417  0.000033
  9   -232.90829060  -0.0000003977  0.000220  0.000340  0.000667  0.000016
 10   -232.90829131  -0.0000007143  0.000008  0.000020  0.000039  0.000001
 11   -232.90829131   0.0000000001  0.000008  0.000009  0.000018  0.000001
                  ***Gradient check signals convergence***
              ***Rediagonalizing the Fockian in SOSCF/NRSCF***

               *****************************************************
               *                     SUCCESS                       *
               *           SCF CONVERGED AFTER  12 CYCLES          *
               *****************************************************

Old exchange energy                            =    -14.247357291 Eh
New exchange energy                            =    -14.247354491 Eh
Exchange energy change after final integration =      0.000002799 Eh
Total energy after final integration           =   -232.908288519 Eh
Final COS-X integration done in                =     2.536 sec

----------------
TOTAL SCF ENERGY
----------------

Total Energy       :         -232.90828852 Eh           -6337.75674 eV

Components:
Nuclear Repulsion  :          217.24331189 Eh            5911.49105 eV
Electronic Energy  :         -450.15160040 Eh          -12249.24779 eV
One Electron Energy:         -742.80053783 Eh          -20212.63022 eV
Two Electron Energy:          292.64893742 Eh            7963.38244 eV
Max COSX asymmetry :            0.00000111 Eh               0.00003 eV

Virial components:
Potential Energy   :         -463.91248301 Eh          -12623.70044 eV
Kinetic Energy     :          231.00419449 Eh            6285.94370 eV
Virial Ratio       :            2.00824268


DFT components:
N(Alpha)           :       22.000002753990 electrons
N(Beta)            :       22.000002753990 electrons
N(Total)           :       44.000005507980 electrons
E(X)               :      -18.898366241963 Eh       
E(C)               :       -1.878095342488 Eh       
E(XC)              :      -20.776461584451 Eh       
DFET-embed. en.    :        0.000000000000 Eh       

---------------
SCF CONVERGENCE
---------------

  Last Energy change         ...   -5.0083e-09  Tolerance :   1.0000e-08
  Last MAX-Density change    ...    1.1102e-15  Tolerance :   1.0000e-07
  Last RMS-Density change    ...    3.8472e-17  Tolerance :   5.0000e-09
  Last Orbital Gradient      ...    1.3049e-06  Tolerance :   1.0000e-05
  Last Orbital Rotation      ...    3.3665e-06  Tolerance :   1.0000e-05

             **** THE GBW FILE WAS UPDATED (pbeh-3c.gbw) ****
             **** DENSITY pbeh-3c.scfp WAS UPDATED ****
             **** ENERGY FILE WAS UPDATED (pbeh-3c.en.tmp) ****
             **** THE GBW FILE WAS UPDATED (pbeh-3c.gbw) ****
             **** DENSITY pbeh-3c.scfp WAS UPDATED ****
----------------
ORBITAL ENERGIES
----------------

  NO   OCC          E(Eh)            E(eV) 
   0   2.0000     -10.450278      -284.3665 
   1   2.0000     -10.447368      -284.2873 
   2   2.0000     -10.442146      -284.1452 
   3   2.0000     -10.439814      -284.0818 
   4   2.0000     -10.438461      -284.0450 
   5   2.0000     -10.422357      -283.6068 
   6   2.0000      -0.949950       -25.8494 
   7   2.0000      -0.836091       -22.7512 
   8   2.0000      -0.801938       -21.8218 
   9   2.0000      -0.719883       -19.5890 
  10   2.0000      -0.631590       -17.1864 
  11   2.0000      -0.590501       -16.0683 
  12   2.0000      -0.549710       -14.9584 
  13   2.0000      -0.520254       -14.1568 
  14   2.0000      -0.486330       -13.2337 
  15   2.0000      -0.444440       -12.0938 
  16   2.0000      -0.420137       -11.4325 
  17   2.0000      -0.418488       -11.3877 
  18   2.0000      -0.406757       -11.0684 
  19   2.0000      -0.381461       -10.3801 
  20   2.0000      -0.354323        -9.6416 
  21   2.0000      -0.254132        -6.9153 
  22   0.0000       0.009590         0.2610 
  23   0.0000       0.104039         2.8311 
  24   0.0000       0.154594         4.2067 
  25   0.0000       0.173126         4.7110 
  26   0.0000       0.186841         5.0842 
  27   0.0000       0.201713         5.4889 
  28   0.0000       0.202329         5.5057 
  29   0.0000       0.220804         6.0084 
  30   0.0000       0.229399         6.2423 
  31   0.0000       0.252559         6.8725 
  32   0.0000       0.283780         7.7220 
  33   0.0000       0.290569         7.9068 
  34   0.0000       0.293376         7.9832 
  35   0.0000       0.336594         9.1592 
  36   0.0000       0.373928        10.1751 
  37   0.0000       0.441118        12.0034 
  38   0.0000       0.516765        14.0619 
  39   0.0000       0.535378        14.5684 
  40   0.0000       0.550168        14.9708 
  41   0.0000       0.554202        15.0806 
  42   0.0000       0.586073        15.9479 
  43   0.0000       0.604235        16.4421 
  44   0.0000       0.605032        16.4638 
  45   0.0000       0.656360        17.8605 
  46   0.0000       0.666345        18.1322 
  47   0.0000       0.671304        18.2671 
  48   0.0000       0.689585        18.7646 
  49   0.0000       0.726444        19.7675 
  50   0.0000       0.734377        19.9834 
  51   0.0000       0.775343        21.0981 
  52   0.0000       0.788557        21.4577 
  53   0.0000       0.875161        23.8144 
  54   0.0000       0.908288        24.7158 
  55   0.0000       0.951024        25.8787 
  56   0.0000       0.976062        26.5600 
  57   0.0000       0.979077        26.6420 
  58   0.0000       0.983195        26.7541 
  59   0.0000       1.028370        27.9834 
  60   0.0000       1.037220        28.2242 
  61   0.0000       1.060786        28.8655 
  62   0.0000       1.078601        29.3502 
  63   0.0000       1.102802        30.0088 
  64   0.0000       1.144098        31.1325 
  65   0.0000       1.183912        32.2159 
  66   0.0000       1.233358        33.5614 
  67   0.0000       1.314277        35.7633 
  68   0.0000       1.325292        36.0630 
  69   0.0000       1.406611        38.2758 
  70   0.0000       1.457303        39.6552 
  71   0.0000       1.527276        41.5593 
  72   0.0000       1.637536        44.5596 
  73   0.0000       1.732110        47.1331 
  74   0.0000       1.740865        47.3713 
  75   0.0000       1.803522        49.0763 
  76   0.0000       1.856247        50.5111 
  77   0.0000       1.885597        51.3097 
  78   0.0000       1.974674        53.7336 
  79   0.0000       2.003391        54.5150 
  80   0.0000       2.017879        54.9093 
  81   0.0000       2.027573        55.1731 
  82   0.0000       2.100304        57.1522 
  83   0.0000       2.116029        57.5801 
  84   0.0000       2.242605        61.0244 
  85   0.0000       2.243343        61.0445 
  86   0.0000       2.268621        61.7323 
  87   0.0000       2.272444        61.8364 
  88   0.0000       2.350104        63.9496 
  89   0.0000       2.405134        65.4470 
  90   0.0000       2.494051        67.8666 
  91   0.0000       2.536433        69.0198 
  92   0.0000       2.568894        69.9032 
  93   0.0000       2.626655        71.4749 
  94   0.0000       2.648042        72.0569 
  95   0.0000       2.709246        73.7223 
  96   0.0000       2.791281        75.9546 
  97   0.0000       2.856694        77.7346 
  98   0.0000       3.116523        84.8049 
  99   0.0000       3.143625        85.5424 
 100   0.0000      13.304764       362.0410 
 101   0.0000      13.631177       370.9232 
 102   0.0000      13.808540       375.7495 
 103   0.0000      13.983496       380.5103 
 104   0.0000      14.174686       385.7128 
 105   0.0000      14.298601       389.0847 

                    ********************************
                    * MULLIKEN POPULATION ANALYSIS *
                    ********************************

-----------------------
MULLIKEN ATOMIC CHARGES
-----------------------
   0 C :   -0.496123
   1 C :   -0.463762
   2 C :    0.152481
   3 C :   -0.225645
   4 C :   -0.192569
   5 C :   -0.576795
   6 H :    0.241269
   7 H :    0.241269
   8 H :    0.231080
   9 H :    0.231080
  10 H :    0.220504
  11 H :    0.214393
  12 H :    0.211294
  13 H :    0.211524
Sum of atomic charges:    0.0000000

--------------------------------
MULLIKEN REDUCED ORBITAL CHARGES
--------------------------------
  0 C s       :     3.355045  s :     3.355045
      pz      :     1.160876  p :     3.099718
      px      :     1.020038
      py      :     0.918804
      dz2     :     0.006969  d :     0.041360
      dxz     :     0.012578
      dyz     :     0.004282
      dx2y2   :     0.007426
      dxy     :     0.010107
  1 C s       :     3.336427  s :     3.336427
      pz      :     1.147352  p :     3.084173
      px      :     0.931393
      py      :     1.005428
      dz2     :     0.006797  d :     0.043162
      dxz     :     0.006279
      dyz     :     0.012350
      dx2y2   :     0.010117
      dxy     :     0.007618
  2 C s       :     3.155151  s :     3.155151
      pz      :     0.941118  p :     2.644255
      px      :     0.848832
      py      :     0.854304
      dz2     :     0.003388  d :     0.048113
      dxz     :     0.004231
      dyz     :     0.010612
      dx2y2   :     0.011847
      dxy     :     0.018035
  3 C s       :     3.269920  s :     3.269920
      pz      :     0.962082  p :     2.915620
      px      :     0.956144
      py      :     0.997394
      dz2     :     0.003753  d :     0.040106
      dxz     :     0.003025
      dyz     :     0.006609
      dx2y2   :     0.011731
      dxy     :     0.014988
  4 C s       :     3.240731  s :     3.240731
      pz      :     0.996263  p :     2.910947
      px      :     0.983191
      py      :     0.931493
      dz2     :     0.003845  d :     0.040891
      dxz     :     0.002460
      dyz     :     0.007571
      dx2y2   :     0.012450
      dxy     :     0.014565
  5 C s       :     3.363665  s :     3.363665
      pz      :     1.073748  p :     3.181309
      px      :     1.112154
      py      :     0.995408
      dz2     :     0.004180  d :     0.031821
      dxz     :     0.000048
      dyz     :     0.005263
      dx2y2   :     0.008099
      dxy     :     0.014231
  6 H s       :     0.758731  s :     0.758731
  7 H s       :     0.758731  s :     0.758731
  8 H s       :     0.768920  s :     0.768920
  9 H s       :     0.768920  s :     0.768920
 10 H s       :     0.779496  s :     0.779496
 11 H s       :     0.785607  s :     0.785607
 12 H s       :     0.788706  s :     0.788706
 13 H s       :     0.788476  s :     0.788476


                     *******************************
                     * LOEWDIN POPULATION ANALYSIS *
                     *******************************

----------------------
LOEWDIN ATOMIC CHARGES
----------------------
   0 C :   -0.228137
   1 C :   -0.236468
   2 C :   -0.049834
   3 C :   -0.128422
   4 C :   -0.139098
   5 C :   -0.295238
   6 H :    0.140436
   7 H :    0.140436
   8 H :    0.132395
   9 H :    0.132395
  10 H :    0.132826
  11 H :    0.136165
  12 H :    0.130837
  13 H :    0.131706

-------------------------------
LOEWDIN REDUCED ORBITAL CHARGES
-------------------------------
  0 C s       :     2.910394  s :     2.910394
      pz      :     1.126229  p :     3.235461
      px      :     1.075832
      py      :     1.033401
      dz2     :     0.012337  d :     0.082281
      dxz     :     0.022375
      dyz     :     0.007958
      dx2y2   :     0.016248
      dxy     :     0.023363
  1 C s       :     2.910780  s :     2.910780
      pz      :     1.118264  p :     3.238502
      px      :     1.053877
      py      :     1.066361
      dz2     :     0.012229  d :     0.087186
      dxz     :     0.011823
      dyz     :     0.022399
      dx2y2   :     0.023575
      dxy     :     0.017161
  2 C s       :     2.865017  s :     2.865017
      pz      :     0.930287  p :     3.070762
      px      :     1.039085
      py      :     1.101390
      dz2     :     0.006517  d :     0.114054
      dxz     :     0.008460
      dyz     :     0.021369
      dx2y2   :     0.030766
      dxy     :     0.046942
  3 C s       :     2.916630  s :     2.916630
      pz      :     0.959988  p :     3.123633
      px      :     1.058015
      py      :     1.105630
      dz2     :     0.006016  d :     0.088160
      dxz     :     0.006865
      dyz     :     0.011167
      dx2y2   :     0.031348
      dxy     :     0.032764
  4 C s       :     2.902674  s :     2.902674
      pz      :     0.987327  p :     3.145120
      px      :     1.068725
      py      :     1.089067
      dz2     :     0.006410  d :     0.091305
      dxz     :     0.004125
      dyz     :     0.014323
      dx2y2   :     0.030481
      dxy     :     0.035965
  5 C s       :     2.953597  s :     2.953597
      pz      :     1.077430  p :     3.276279
      px      :     1.094540
      py      :     1.104309
      dz2     :     0.005762  d :     0.065363
      dxz     :     0.000059
      dyz     :     0.008926
      dx2y2   :     0.019343
      dxy     :     0.031272
  6 H s       :     0.859564  s :     0.859564
  7 H s       :     0.859564  s :     0.859564
  8 H s       :     0.867605  s :     0.867605
  9 H s       :     0.867605  s :     0.867605
 10 H s       :     0.867174  s :     0.867174
 11 H s       :     0.863835  s :     0.863835
 12 H s       :     0.869163  s :     0.869163
 13 H s       :     0.868294  s :     0.868294


                      *****************************
                      * MAYER POPULATION ANALYSIS *
                      *****************************

  NA   - Mulliken gross atomic population
  ZA   - Total nuclear charge
  QA   - Mulliken gross atomic charge
  VA   - Mayer's total valence
  BVA  - Mayer's bonded valence
  FA   - Mayer's free valence

  ATOM       NA         ZA         QA         VA         BVA        FA
  0 C      6.4961     6.0000    -0.4961     3.6956     3.6956    -0.0000
  1 C      6.4638     6.0000    -0.4638     3.7286     3.7286     0.0000
  2 C      5.8475     6.0000     0.1525     3.7627     3.7627     0.0000
  3 C      6.2256     6.0000    -0.2256     3.7797     3.7797     0.0000
  4 C      6.1926     6.0000    -0.1926     3.7867     3.7867     0.0000
  5 C      6.5768     6.0000    -0.5768     3.7739     3.7739     0.0000
  6 H      0.7587     1.0000     0.2413     0.9008     0.9008    -0.0000
  7 H      0.7587     1.0000     0.2413     0.9008     0.9008     0.0000
  8 H      0.7689     1.0000     0.2311     0.9006     0.9006     0.0000
  9 H      0.7689     1.0000     0.2311     0.9006     0.9006     0.0000
 10 H      0.7795     1.0000     0.2205     0.9200     0.9200     0.0000
 11 H      0.7856     1.0000     0.2144     0.9195     0.9195     0.0000
 12 H      0.7887     1.0000     0.2113     0.9255     0.9255     0.0000
 13 H      0.7885     1.0000     0.2115     0.9242     0.9242     0.0000

  Mayer bond orders larger than 0.100000
B(  0-C ,  1-C ) :   0.9620 B(  0-C ,  2-C ) :   0.9671 B(  0-C ,  6-H ) :   0.9168 
B(  0-C ,  7-H ) :   0.9168 B(  1-C ,  3-C ) :   1.0088 B(  1-C ,  8-H ) :   0.9128 
B(  1-C ,  9-H ) :   0.9128 B(  2-C ,  4-C ) :   1.0853 B(  2-C ,  5-C ) :   1.7978 
B(  3-C ,  4-C ) :   1.8003 B(  3-C ,  5-C ) :   0.1083 B(  3-C , 10-H ) :   0.9213 
B(  4-C , 11-H ) :   0.9260 B(  5-C , 12-H ) :   0.9353 B(  5-C , 13-H ) :   0.9329 


-------
TIMINGS
-------

Total SCF time: 0 days 0 hours 0 min 55 sec 

Total time                  ....      55.980 sec
Sum of individual times     ....      52.549 sec  ( 93.9%)

Fock matrix formation       ....      42.155 sec  ( 75.3%)
  Split-RI-J                ....       4.016 sec  (  9.5% of F)
  Chain of spheres X        ....      19.568 sec  ( 46.4% of F)
  XC integration            ....      11.385 sec  ( 27.0% of F)
    Basis function eval.    ....       2.717 sec  ( 23.9% of XC)
    Density eval.           ....       1.467 sec  ( 12.9% of XC)
    XC-Functional eval.     ....       1.122 sec  (  9.9% of XC)
    XC-Potential eval.      ....       0.922 sec  (  8.1% of XC)
Diagonalization             ....       0.790 sec  (  1.4%)
Density matrix formation    ....       0.220 sec  (  0.4%)
Population analysis         ....       0.423 sec  (  0.8%)
Initial guess               ....       0.097 sec  (  0.2%)
Orbital Transformation      ....       0.000 sec  (  0.0%)
Orbital Orthonormalization  ....       0.000 sec  (  0.0%)
DIIS solution               ....       0.681 sec  (  1.2%)
SOSCF solution              ....       0.267 sec  (  0.5%)
Grid generation             ....       7.915 sec  ( 14.1%)

Maximum memory used throughout the entire SCF-calculation: 51.9 MB


-------------------------------------------------------------------------------
                          DFT DISPERSION CORRECTION                            
                                                                               
                              DFTD3 V3.1  Rev 1                                
                          USING Becke-Johnson damping                          
-------------------------------------------------------------------------------
The PBEh-3c composite method is recognized
Using three-body term ABC
Active option DFTDOPT                   ...         4   

molecular C6(AA) [au] = 1819.530390 


            DFT-D V3
 parameters
 s6 scaling factor         :     1.0000 
 a1 scaling factor         :     0.4860 
 s8 scaling factor         :     0.0000 
 a2 scaling factor         :     4.5000 
 Damping factor alpha9(ATM):    16.0000 
 ad hoc parameters k1-k3   :    16.0000     1.3333    -4.0000 

 Edisp/kcal,au: -4.128906117907  -0.006579830024 
 E6   /kcal   :  -4.139661698 
 E8   /kcal   :  -0.000000000 
 E6(ABC)      :   0.010755580 
 % E8         :   0.000000000 
 % E6(ABC)    :  -0.260494658 

-------------------------   ----------------
Dispersion correction           -0.006579830
-------------------------   ----------------

------------------   -----------------
gCP correction             0.017849539
------------------   -----------------

-------------------------   --------------------
FINAL SINGLE POINT ENERGY      -232.897018810279
-------------------------   --------------------


                            ***************************************
                            *     ORCA property calculations      *
                            ***************************************

                                    ---------------------
                                    Active property flags
                                    ---------------------
   (+) Dipole Moment


------------------------------------------------------------------------------
                       ORCA ELECTRIC PROPERTIES CALCULATION
------------------------------------------------------------------------------

Dipole Moment Calculation                       ... on
Quadrupole Moment Calculation                   ... off
Polarizability Calculation                      ... off
GBWName                                         ... pbeh-3c.gbw
Electron density                                ... pbeh-3c.scfp
The origin for moment calculation is the CENTER OF MASS  = (-0.040102,  0.008135  0.000000)

-------------
DIPOLE MOMENT
-------------
                                X             Y             Z
Electronic contribution:     -1.67570       0.04699       0.00000
Nuclear contribution   :      1.76450      -0.35796       0.00000
                        -----------------------------------------
Total Dipole Moment    :      0.08880      -0.31097       0.00000
                        -----------------------------------------
Magnitude (a.u.)       :      0.32340
Magnitude (Debye)      :      0.82202



--------------------
Rotational spectrum 
--------------------
 
Rotational constants in cm-1:     0.245234     0.115914     0.081044 
Rotational constants in MHz :  7351.928781  3475.016573  2429.645084 

 Dipole components along the rotational axes: 
x,y,z [a.u.] :     0.308720    -0.096328     0.000000 
x,y,z [Debye]:     0.784704    -0.244846     0.000000 

 

Timings for individual modules:

Sum of individual times         ...       57.490 sec (=   0.958 min)
GTO integral calculation        ...        1.128 sec (=   0.019 min)   2.0 %
SCF iterations                  ...       56.362 sec (=   0.939 min)  98.0 %
                             ****ORCA TERMINATED NORMALLY****
TOTAL RUN TIME: 0 days 0 hours 0 minutes 58 seconds 688 msec
