
                                 *****************
                                 * O   R   C   A *
                                 *****************

                                            #,                                       
                                            ###                                      
                                            ####                                     
                                            #####                                    
                                            ######                                   
                                           ########,                                 
                                     ,,################,,,,,                         
                               ,,#################################,,                 
                          ,,##########################################,,             
                       ,#########################################, ''#####,          
                    ,#############################################,,   '####,        
                  ,##################################################,,,,####,       
                ,###########''''           ''''###############################       
              ,#####''   ,,,,##########,,,,          '''####'''          '####       
            ,##' ,,,,###########################,,,                        '##       
           ' ,,###''''                  '''############,,,                           
         ,,##''                                '''############,,,,        ,,,,,,###''
      ,#''                                            '''#######################'''  
     '                                                          ''''####''''         
             ,#######,   #######,   ,#######,      ##                                
            ,#'     '#,  ##    ##  ,#'     '#,    #''#        ######   ,####,        
            ##       ##  ##   ,#'  ##            #'  '#       #        #'  '#        
            ##       ##  #######   ##           ,######,      #####,   #    #        
            '#,     ,#'  ##    ##  '#,     ,#' ,#      #,         ##   #,  ,#        
             '#######'   ##     ##  '#######'  #'      '#     #####' # '####'        



                  #######################################################
                  #                        -***-                        #
                  #          Department of theory and spectroscopy      #
                  #    Directorship and core code : Frank Neese         #
                  #        Max Planck Institute fuer Kohlenforschung    #
                  #                Kaiser Wilhelm Platz 1               #
                  #                 D-45470 Muelheim/Ruhr               #
                  #                      Germany                        #
                  #                                                     #
                  #                  All rights reserved                #
                  #                        -***-                        #
                  #######################################################


                         Program Version 5.0.3 -  RELEASE  -


 With contributions from (in alphabetic order):
   Daniel Aravena         : Magnetic Suceptibility
   Michael Atanasov       : Ab Initio Ligand Field Theory (pilot matlab implementation)
   Alexander A. Auer      : GIAO ZORA, VPT2 properties, NMR spectrum
   Ute Becker             : Parallelization
   Giovanni Bistoni       : ED, misc. LED, open-shell LED, HFLD
   Martin Brehm           : Molecular dynamics
   Dmytro Bykov           : SCF Hessian
   Vijay G. Chilkuri      : MRCI spin determinant printing, contributions to CSF-ICE
   Dipayan Datta          : RHF DLPNO-CCSD density
   Achintya Kumar Dutta   : EOM-CC, STEOM-CC
   Dmitry Ganyushin       : Spin-Orbit,Spin-Spin,Magnetic field MRCI
   Miquel Garcia          : C-PCM and meta-GGA Hessian, CC/C-PCM, Gaussian charge scheme
   Yang Guo               : DLPNO-NEVPT2, F12-NEVPT2, CIM, IAO-localization
   Andreas Hansen         : Spin unrestricted coupled pair/coupled cluster methods
   Benjamin Helmich-Paris : MC-RPA, TRAH-SCF, COSX integrals
   Lee Huntington         : MR-EOM, pCC
   Robert Izsak           : Overlap fitted RIJCOSX, COSX-SCS-MP3, EOM
   Marcus Kettner         : VPT2
   Christian Kollmar      : KDIIS, OOCD, Brueckner-CCSD(T), CCSD density, CASPT2, CASPT2-K
   Simone Kossmann        : Meta GGA functionals, TD-DFT gradient, OOMP2, MP2 Hessian
   Martin Krupicka        : Initial AUTO-CI
   Lucas Lang             : DCDCAS
   Marvin Lechner         : AUTO-CI (C++ implementation), FIC-MRCC
   Dagmar Lenk            : GEPOL surface, SMD
   Dimitrios Liakos       : Extrapolation schemes; Compound Job, initial MDCI parallelization
   Dimitrios Manganas     : Further ROCIS development; embedding schemes
   Dimitrios Pantazis     : SARC Basis sets
   Anastasios Papadopoulos: AUTO-CI, single reference methods and gradients
   Taras Petrenko         : DFT Hessian,TD-DFT gradient, ASA, ECA, R-Raman, ABS, FL, XAS/XES, NRVS
   Peter Pinski           : DLPNO-MP2, DLPNO-MP2 Gradient
   Christoph Reimann      : Effective Core Potentials
   Marius Retegan         : Local ZFS, SOC
   Christoph Riplinger    : Optimizer, TS searches, QM/MM, DLPNO-CCSD(T), (RO)-DLPNO pert. Triples
   Tobias Risthaus        : Range-separated hybrids, TD-DFT gradient, RPA, STAB
   Michael Roemelt        : Original ROCIS implementation
   Masaaki Saitow         : Open-shell DLPNO-CCSD energy and density
   Barbara Sandhoefer     : DKH picture change effects
   Avijit Sen             : IP-ROCIS
   Kantharuban Sivalingam : CASSCF convergence, NEVPT2, FIC-MRCI
   Bernardo de Souza      : ESD, SOC TD-DFT
   Georgi Stoychev        : AutoAux, RI-MP2 NMR, DLPNO-MP2 response
   Willem Van den Heuvel  : Paramagnetic NMR
   Boris Wezisla          : Elementary symmetry handling
   Frank Wennmohs         : Technical directorship


 We gratefully acknowledge several colleagues who have allowed us to
 interface, adapt or use parts of their codes:
   Stefan Grimme, W. Hujo, H. Kruse, P. Pracht,  : VdW corrections, initial TS optimization,
                  C. Bannwarth, S. Ehlert          DFT functionals, gCP, sTDA/sTD-DF
   Ed Valeev, F. Pavosevic, A. Kumar             : LibInt (2-el integral package), F12 methods
   Garnet Chan, S. Sharma, J. Yang, R. Olivares  : DMRG
   Ulf Ekstrom                                   : XCFun DFT Library
   Mihaly Kallay                                 : mrcc  (arbitrary order and MRCC methods)
   Jiri Pittner, Ondrej Demel                    : Mk-CCSD
   Frank Weinhold                                : gennbo (NPA and NBO analysis)
   Christopher J. Cramer and Donald G. Truhlar   : smd solvation model
   Lars Goerigk                                  : TD-DFT with DH, B97 family of functionals
   V. Asgeirsson, H. Jonsson                     : NEB implementation
   FAccTs GmbH                                   : IRC, NEB, NEB-TS, DLPNO-Multilevel, CI-OPT
                                                   MM, QMMM, 2- and 3-layer-ONIOM, Crystal-QMMM,
                                                   LR-CPCM, SF, NACMEs, symmetry and pop. for TD-DFT,
                                                   nearIR, NL-DFT gradient (VV10), updates on ESD,
                                                   ML-optimized integration grids
   S Lehtola, MJT Oliveira, MAL Marques          : LibXC Library
   Liviu Ungur et al                             : ANISO software


 Your calculation uses the libint2 library for the computation of 2-el integrals
 For citations please refer to: http://libint.valeyev.net

 Your ORCA version has been built with support for libXC version: 5.1.0
 For citations please refer to: https://tddft.org/programs/libxc/

 This ORCA versions uses:
   CBLAS   interface :  Fast vector & matrix operations
   LAPACKE interface :  Fast linear algebra routines
   SCALAPACK package :  Parallel linear algebra routines
   Shared memory     :  Shared parallel matrices
   BLAS/LAPACK       :  OpenBLAS 0.3.15  USE64BITINT DYNAMIC_ARCH NO_AFFINITY Haswell SINGLE_THREADED
        Core in use  :  Haswell
   Copyright (c) 2011-2014, The OpenBLAS Project




***************************************
The coordinates will be read from file: 4a.xyz
***************************************


Your calculation utilizes the geometrical counterpoise correction gCP
Please cite in your paper:
H.Kruse, S. Grimme J.Chem.Phys., 136, (2012), 154101 
   

Your calculation utilizes the atom-pairwise dispersion correction
with the Becke-Johnson damping scheme (D3BJ)
Cite in your paper:
S.Grimme, S.Ehrlich, L.Goerigk, J Comput Chem, (2011), 32, 1456–1465 
S.Grimme, J.Antony, S.Ehrlich and H.Krieg, J.Chem.Phys., 132, (2010), 154104 
   

Your calculation employs the composite approach PBEh-3c.
Please cite in your paper:
S. Grimme, J. G. Brandenburg, C. Bannwarth, A. Hansen J.Chem.Phys., 143, (2015), 054107 
   

================================================================================

----- Orbital basis set information -----
Your calculation utilizes the basis: def2-mSVP

----- AuxJ basis set information -----
Your calculation utilizes the auxiliary basis: def2/J
   F. Weigend, Phys. Chem. Chem. Phys. 8, 1057 (2006).

================================================================================
                                        WARNINGS
                       Please study these warnings very carefully!
================================================================================


INFO   : the flag for use of the SHARK integral package has been found!

================================================================================
                                       INPUT FILE
================================================================================
NAME = pbeh-3c.inp
|  1> ! PBEh-3c def2/J TightSCF DefGrid3
|  2> 
|  3> %maxcore 60000
|  4> 
|  5> %pal
|  6> nprocs 4
|  7> end
|  8> 
|  9> *xyzfile 0 1 4a.xyz
| 10> 
| 11>                          ****END OF INPUT****
================================================================================

                       ****************************
                       * Single Point Calculation *
                       ****************************

---------------------------------
CARTESIAN COORDINATES (ANGSTROEM)
---------------------------------
  C     -0.667171   -1.035679    0.000000
  C     -1.412898    0.128477    0.000000
  C     -0.756196    1.359293    0.000000
  C      0.627784    1.363510    0.000000
  N      1.367527    0.243504    0.000000
  C      0.723510   -0.912502    0.000000
  O      1.467068   -2.042895    0.000000
  H     -2.492450    0.079846    0.000000
  H     -1.303816    2.289134    0.000000
  H      1.181321    2.292708    0.000000
  H     -1.121635   -2.014204    0.000000
  H      2.386956   -1.751192    0.000000

----------------------------
CARTESIAN COORDINATES (A.U.)
----------------------------
  NO LB      ZA    FRAG     MASS         X           Y           Z
   0 C     6.0000    0    12.011   -1.260771   -1.957150    0.000000
   1 C     6.0000    0    12.011   -2.669990    0.242786    0.000000
   2 C     6.0000    0    12.011   -1.429003    2.568692    0.000000
   3 C     6.0000    0    12.011    1.186341    2.576661    0.000000
   4 N     7.0000    0    14.007    2.584251    0.460155    0.000000
   5 C     6.0000    0    12.011    1.367235   -1.724378    0.000000
   6 O     8.0000    0    15.999    2.772356   -3.860512    0.000000
   7 H     1.0000    0     1.008   -4.710048    0.150886    0.000000
   8 H     1.0000    0     1.008   -2.463855    4.325836    0.000000
   9 H     1.0000    0     1.008    2.232373    4.332590    0.000000
  10 H     1.0000    0     1.008   -2.119583   -3.806294    0.000000
  11 H     1.0000    0     1.008    4.510694   -3.309273    0.000000

--------------------------------
INTERNAL COORDINATES (ANGSTROEM)
--------------------------------
 C      0   0   0     0.000000000000     0.00000000     0.00000000
 C      1   0   0     1.382522189819     0.00000000     0.00000000
 C      2   1   0     1.395050461031   119.27534650     0.00000000
 C      3   2   1     1.383986624603   118.25673375     0.00000000
 N      4   3   2     1.342249150661   123.26940307     0.00000000
 C      5   4   3     1.323293946909   117.43358991     0.00000000
 O      6   5   4     1.353021732816   117.54116778   180.00000000
 H      2   1   3     1.080647412079   120.06319862   180.00000000
 H      3   2   1     1.079116195649   121.42233657   180.00000000
 H      4   3   2     1.081578179616   120.95743124   180.00000000
 H      1   2   3     1.078910488932   122.44557071   180.00000000
 H      7   6   5     0.965031528833   105.74220914     0.00000000

---------------------------
INTERNAL COORDINATES (A.U.)
---------------------------
 C      0   0   0     0.000000000000     0.00000000     0.00000000
 C      1   0   0     2.612588312827     0.00000000     0.00000000
 C      2   1   0     2.636263314349   119.27534650     0.00000000
 C      3   2   1     2.615355693510   118.25673375     0.00000000
 N      4   3   2     2.536483298237   123.26940307     0.00000000
 C      5   4   3     2.500663154334   117.43358991     0.00000000
 O      6   5   4     2.556840528266   117.54116778   180.00000000
 H      2   1   3     2.042127656160   120.06319862   180.00000000
 H      3   2   1     2.039234076456   121.42233657   180.00000000
 H      4   3   2     2.043886551900   120.95743124   180.00000000
 H      1   2   3     2.038845347097   122.44557071   180.00000000
 H      7   6   5     1.823645300093   105.74220914     0.00000000

---------------------
BASIS SET INFORMATION
---------------------
There are 4 groups of distinct atoms

 Group   1 Type C   : 8s4p1d contracted to 4s2p1d pattern {5111/31/1}
 Group   2 Type N   : 8s4p1d contracted to 4s2p1d pattern {5111/31/1}
 Group   3 Type O   : 8s4p1d contracted to 4s2p1d pattern {5111/31/1}
 Group   4 Type H   : 4s contracted to 2s pattern {31}

Atom   0C    basis set group =>   1
Atom   1C    basis set group =>   1
Atom   2C    basis set group =>   1
Atom   3C    basis set group =>   1
Atom   4N    basis set group =>   2
Atom   5C    basis set group =>   1
Atom   6O    basis set group =>   3
Atom   7H    basis set group =>   4
Atom   8H    basis set group =>   4
Atom   9H    basis set group =>   4
Atom  10H    basis set group =>   4
Atom  11H    basis set group =>   4
---------------------------------
AUXILIARY/J BASIS SET INFORMATION
---------------------------------
There are 4 groups of distinct atoms

 Group   1 Type C   : 12s5p4d2f1g contracted to 6s4p3d1f1g pattern {711111/2111/211/2/1}
 Group   2 Type N   : 12s5p4d2f1g contracted to 6s4p3d1f1g pattern {711111/2111/211/2/1}
 Group   3 Type O   : 12s5p4d2f1g contracted to 6s4p3d1f1g pattern {711111/2111/211/2/1}
 Group   4 Type H   : 5s2p1d contracted to 3s1p1d pattern {311/2/1}

Atom   0C    basis set group =>   1
Atom   1C    basis set group =>   1
Atom   2C    basis set group =>   1
Atom   3C    basis set group =>   1
Atom   4N    basis set group =>   2
Atom   5C    basis set group =>   1
Atom   6O    basis set group =>   3
Atom   7H    basis set group =>   4
Atom   8H    basis set group =>   4
Atom   9H    basis set group =>   4
Atom  10H    basis set group =>   4
Atom  11H    basis set group =>   4


           ************************************************************
           *        Program running with 4 parallel MPI-processes     *
           *              working on a common directory               *
           ************************************************************
------------------------------------------------------------------------------
                           ORCA GTO INTEGRAL CALCULATION
                           -- RI-GTO INTEGRALS CHOSEN --
------------------------------------------------------------------------------
------------------------------------------------------------------------------
                   ___                                                        
                  /   \      - P O W E R E D   B Y -                         
                 /     \                                                     
                 |  |  |   _    _      __       _____    __    __             
                 |  |  |  | |  | |    /  \     |  _  \  |  |  /  |          
                  \  \/   | |  | |   /    \    | | | |  |  | /  /          
                 / \  \   | |__| |  /  /\  \   | |_| |  |  |/  /          
                |  |  |   |  __  | /  /__\  \  |    /   |      \           
                |  |  |   | |  | | |   __   |  |    \   |  |\   \          
                \     /   | |  | | |  |  |  |  | |\  \  |  | \   \       
                 \___/    |_|  |_| |__|  |__|  |_| \__\ |__|  \__/        
                                                                              
                      - O R C A' S   B I G   F R I E N D -                    
                                      &                                       
                       - I N T E G R A L  F E E D E R -                       
                                                                              
 v1 FN, 2020, v2 2021                                                         
------------------------------------------------------------------------------


Reading SHARK input file pbeh-3c.SHARKINP.tmp ... ok
----------------------
SHARK INTEGRAL PACKAGE
----------------------

Number of atoms                             ...     12
Number of basis functions                   ...    115
Number of shells                            ...     59
Maximum angular momentum                    ...      2
Integral batch strategy                     ... SHARK/LIBINT Hybrid
RI-J (if used) integral strategy            ... SPLIT-RIJ (Revised 2003 algorithm where possible)
Printlevel                                  ...      1
Contraction scheme used                     ... SEGMENTED contraction
Coulomb Range Separation                    ... NOT USED
Exchange Range Separation                   ... NOT USED
Finite Nucleus Model                        ... NOT USED
Auxiliary Coulomb fitting basis             ... AVAILABLE
   # of basis functions in Aux-J            ...    398
   # of shells in Aux-J                     ...    130
   Maximum angular momentum in Aux-J        ...      4
Auxiliary J/K fitting basis                 ... NOT available
Auxiliary Correlation fitting basis         ... NOT available
Auxiliary 'external' fitting basis          ... NOT available
Integral threshold                          ...     2.500000e-11
Primitive cut-off                           ...     2.500000e-12
Primitive pair pre-selection threshold      ...     2.500000e-12

Calculating pre-screening integrals         ... done (  0.0 sec) Dimension = 59
Organizing shell pair data                  ... done (  0.3 sec)
Shell pair information
Total number of shell pairs                 ...      1770
Shell pairs after pre-screening             ...      1651
Total number of primitive shell pairs       ...      6322
Primitive shell pairs kept                  ...      4380
          la=0 lb=0:    643 shell pairs
          la=1 lb=0:    522 shell pairs
          la=1 lb=1:    105 shell pairs
          la=2 lb=0:    255 shell pairs
          la=2 lb=1:     98 shell pairs
          la=2 lb=2:     28 shell pairs

Calculating one electron integrals          ... done (  0.0 sec)
Calculating RI/J V-Matrix + Cholesky decomp.... done (  0.6 sec)
Calculating Nuclear repulsion               ... done (  0.1 sec) ENN=    276.228308742951 Eh

SHARK setup successfully completed in   2.1 seconds

Maximum memory used throughout the entire GTOINT-calculation: 10.4 MB


           ************************************************************
           *        Program running with 4 parallel MPI-processes     *
           *              working on a common directory               *
           ************************************************************
-------------------------------------------------------------------------------
                                 ORCA SCF
-------------------------------------------------------------------------------

------------
SCF SETTINGS
------------
Hamiltonian:
 Density Functional     Method          .... DFT(GTOs)
 Exchange Functional    Exchange        .... PBE
   PBE kappa parameter   XKappa         ....  1.024500
   PBE mue parameter    XMuePBE         ....  0.123457
 Correlation Functional Correlation     .... PBE
   PBE beta parameter  CBetaPBE         ....  0.030000
 LDA part of GGA corr.  LDAOpt          .... PW91-LDA
 Gradients option       PostSCFGGA      .... off
 Hybrid DFT is turned on
   Fraction HF Exchange ScalHFX         ....  0.420000
   Scaling of DF-GGA-X  ScalDFX         ....  0.580000
   Scaling of DF-GGA-C  ScalDFC         ....  1.000000
   Scaling of DF-LDA-C  ScalLDAC        ....  1.000000
   Perturbative correction              ....  0.000000
   Density functional embedding theory  .... OFF
 RI-approximation to the Coulomb term is turned on
   Number of AuxJ basis functions       .... 398
   RIJ-ON(X) (HFX calculated with O(N)) .... on
   Number of AuxJ basis functions       .... 398
   RIJ-COSX (HFX calculated with COS-X)).... on


General Settings:
 Integral files         IntName         .... pbeh-3c
 Hartree-Fock type      HFTyp           .... RHF
 Total Charge           Charge          ....    0
 Multiplicity           Mult            ....    1
 Number of Electrons    NEL             ....   50
 Basis Dimension        Dim             ....  115
 Nuclear Repulsion      ENuc            ....    276.2283087430 Eh

Convergence Acceleration:
 DIIS                   CNVDIIS         .... on
   Start iteration      DIISMaxIt       ....    12
   Startup error        DIISStart       ....  0.200000
   # of expansion vecs  DIISMaxEq       ....     5
   Bias factor          DIISBfac        ....   1.050
   Max. coefficient     DIISMaxC        ....  10.000
 Trust-Rad. Augm. Hess. CNVTRAH         .... auto
   Auto Start mean grad. ratio tolernc. ....  1.125000
   Auto Start start iteration           ....    20
   Auto Start num. interpolation iter.  ....    10
   Max. Number of Micro iterations      ....    16
   Max. Number of Macro iterations      .... Maxiter - #DIIS iter
   Number of Davidson start vectors     ....     2
   Converg. threshold I  (grad. norm)   ....   1.000e-05
   Converg. threshold II (energy diff.) ....   1.000e-08
   Grad. Scal. Fac. for Micro threshold ....   0.100
   Minimum threshold for Micro iter.    ....   0.010
   NR start threshold (gradient norm)   ....   0.001
   Initial trust radius                 ....   0.400
   Minimum AH scaling param. (alpha)    ....   1.000
   Maximum AH scaling param. (alpha)    .... 1000.000
   Orbital update algorithm             .... Taylor
   White noise on init. David. guess    .... on
   Maximum white noise                  ....   0.010
   Quad. conv. algorithm                .... NR
   COSX micro iterations for RIJONX calc.... off
 SOSCF                  CNVSOSCF        .... on
   Start iteration      SOSCFMaxIt      ....   150
   Startup grad/error   SOSCFStart      ....  0.003300
 Level Shifting         CNVShift        .... on
   Level shift para.    LevelShift      ....    0.2500
   Turn off err/grad.   ShiftErr        ....    0.0010
 Zerner damping         CNVZerner       .... off
 Static damping         CNVDamp         .... on
   Fraction old density DampFac         ....    0.7000
   Max. Damping (<1)    DampMax         ....    0.9800
   Min. Damping (>=0)   DampMin         ....    0.0000
   Turn off err/grad.   DampErr         ....    0.1000
 Fernandez-Rico         CNVRico         .... off

SCF Procedure:
 Maximum # iterations   MaxIter         ....   125
 SCF integral mode      SCFMode         .... Direct
   Integral package                     .... SHARK and LIBINT hybrid scheme
 Reset frequency        DirectResetFreq ....    20
 Integral Threshold     Thresh          ....  2.500e-11 Eh
 Primitive CutOff       TCut            ....  2.500e-12 Eh

Convergence Tolerance:
 Convergence Check Mode ConvCheckMode   .... Total+1el-Energy
 Convergence forced     ConvForced      .... 0
 Energy Change          TolE            ....  1.000e-08 Eh
 1-El. energy change                    ....  1.000e-05 Eh
 Orbital Gradient       TolG            ....  1.000e-05
 Orbital Rotation angle TolX            ....  1.000e-05
 DIIS Error             TolErr          ....  5.000e-07


Diagonalization of the overlap matrix:
Smallest eigenvalue                        ... 9.317e-04
Time for diagonalization                   ...    0.003 sec
Threshold for overlap eigenvalues          ... 1.000e-08
Number of eigenvalues below threshold      ... 0
Time for construction of square roots      ...    0.421 sec
Total time needed                          ...    0.515 sec

--------------------------------
INITIAL GUESS: MINIMAL BASIS EHT
--------------------------------
The minimal basis has 40 functions
EHT matrix was diagonalized
Basis set overlap was calculated now projecting the orbitals
Using GuessMode=FMatrix for the initial guess
C*T matrix was formed
Effective Fockian was calculated
Effective Fockian was diagonalized
Initial density was built
                      ------------------
                      INITIAL GUESS DONE
                      ------------------
-------------------
DFT GRID GENERATION
-------------------

General Integration Accuracy     IntAcc      ... 4.959
Radial Grid Type                 RadialGrid  ... OptM3 with GC (2021)
Angular Grid (max. ang.)         AngularGrid ... 6 (Lebedev-590)
Angular grid pruning method      GridPruning ... 4 (adaptive)
Weight generation scheme         WeightScheme... Becke
Basis function cutoff            BFCut       ... 1.0000e-11
Integration weight cutoff        WCut        ... 1.0000e-14
Angular grids for H and He will be reduced by one unit
Partially contracted basis set               ... off
Rotationally invariant grid construction     ... off

Total number of grid points                  ...   144275
Total number of batches                      ...     2261
Average number of points per batch           ...       63
Average number of grid points per atom       ...    12023
Time for grid setup =    3.194 sec

--------------------
COSX GRID GENERATION
--------------------

GRIDX 1
-------
General Integration Accuracy     IntAcc      ... 4.020
Radial Grid Type                 RadialGrid  ... OptM3 with GC (2021)
Angular Grid (max. ang.)         AngularGrid ... 2 (Lebedev-110)
Angular grid pruning method      GridPruning ... 4 (adaptive)
Weight generation scheme         WeightScheme... Becke
Basis function cutoff            BFCut       ... 1.0000e-11
Integration weight cutoff        WCut        ... 1.0000e-14
Angular grids for H and He will be reduced by one unit
Partially contracted basis set               ... on
Rotationally invariant grid construction     ... off

Total number of grid points                  ...    16552
Total number of batches                      ...      265
Average number of points per batch           ...       62
Average number of grid points per atom       ...     1379
UseSFitting                                  ... on

GRIDX 2
-------
General Integration Accuracy     IntAcc      ... 4.338
Radial Grid Type                 RadialGrid  ... OptM3 with GC (2021)
Angular Grid (max. ang.)         AngularGrid ... 3 (Lebedev-194)
Angular grid pruning method      GridPruning ... 4 (adaptive)
Weight generation scheme         WeightScheme... Becke
Basis function cutoff            BFCut       ... 1.0000e-11
Integration weight cutoff        WCut        ... 1.0000e-14
Angular grids for H and He will be reduced by one unit
Partially contracted basis set               ... on
Rotationally invariant grid construction     ... off

Total number of grid points                  ...    36506
Total number of batches                      ...      577
Average number of points per batch           ...       63
Average number of grid points per atom       ...     3042
UseSFitting                                  ... on

GRIDX 3
-------
General Integration Accuracy     IntAcc      ... 4.871
Radial Grid Type                 RadialGrid  ... OptM3 with GC (2021)
Angular Grid (max. ang.)         AngularGrid ... 4 (Lebedev-302)
Angular grid pruning method      GridPruning ... 4 (adaptive)
Weight generation scheme         WeightScheme... Becke
Basis function cutoff            BFCut       ... 1.0000e-11
Integration weight cutoff        WCut        ... 1.0000e-14
Angular grids for H and He will be reduced by one unit
Partially contracted basis set               ... on
Rotationally invariant grid construction     ... off

Total number of grid points                  ...    68673
Total number of batches                      ...     1081
Average number of points per batch           ...       63
Average number of grid points per atom       ...     5723
UseSFitting                                  ... on

Time for X-Grid setup             =    4.802 sec

--------------
SCF ITERATIONS
--------------
ITER       Energy         Delta-E        Max-DP      RMS-DP      [F,P]     Damp
               ***  Starting incremental Fock matrix formation  ***
  0   -321.8243894493   0.000000000000 0.16073230  0.00665658  0.4471902 0.7000
  1   -322.1676769533  -0.343287504065 0.10249092  0.00430512  0.2965869 0.7000
  2   -322.3660547945  -0.198377841195 0.05637548  0.00276323  0.2076619 0.7000
                               ***Turning on DIIS***
  3   -322.5009996919  -0.134944897402 0.03362489  0.00191292  0.1451518 0.7000
  4   -322.5972485822  -0.096248890290 0.02856038  0.00144853  0.1016676 0.7000
  5   -322.6656000199  -0.068351437622 0.06823598  0.00354909  0.0711793 0.0000
  6   -322.8286009605  -0.163000940652 0.00424012  0.00015043  0.0035428 0.0000
                      *** Initiating the SOSCF procedure ***
                           *** Shutting down DIIS ***
                      *** Re-Reading the Fockian *** 
                      *** Removing any level shift *** 
ITER      Energy       Delta-E        Grad      Rot      Max-DP    RMS-DP
  7   -322.82868835  -0.0000873939  0.000542  0.000542  0.001313  0.000059
               *** Restarting incremental Fock matrix formation ***
  8   -322.82870432  -0.0000159653  0.000229  0.000434  0.001102  0.000040
  9   -322.82870683  -0.0000025125  0.000178  0.000320  0.000653  0.000023
 10   -322.82870746  -0.0000006271  0.000057  0.000088  0.000308  0.000010
 11   -322.82870760  -0.0000001360  0.000027  0.000061  0.000080  0.000003
 12   -322.82870760  -0.0000000075  0.000025  0.000040  0.000045  0.000002
                  ***Gradient check signals convergence***
              ***Rediagonalizing the Fockian in SOSCF/NRSCF***

               *****************************************************
               *                     SUCCESS                       *
               *           SCF CONVERGED AFTER  13 CYCLES          *
               *****************************************************

Old exchange energy                            =    -17.862765094 Eh
New exchange energy                            =    -17.862752128 Eh
Exchange energy change after final integration =      0.000012967 Eh
Total energy after final integration           =   -322.828694647 Eh
Final COS-X integration done in                =     3.431 sec

----------------
TOTAL SCF ENERGY
----------------

Total Energy       :         -322.82869465 Eh           -8784.61538 eV

Components:
Nuclear Repulsion  :          276.22830874 Eh            7516.55442 eV
Electronic Energy  :         -599.05700339 Eh          -16301.16980 eV
One Electron Energy:         -984.77685933 Eh          -26797.14068 eV
Two Electron Energy:          385.71985594 Eh           10495.97088 eV
Max COSX asymmetry :            0.00000222 Eh               0.00006 eV

Virial components:
Potential Energy   :         -643.27316641 Eh          -17504.35276 eV
Kinetic Energy     :          320.44447176 Eh            8719.73738 eV
Virial Ratio       :            2.00744036


DFT components:
N(Alpha)           :       25.000000050803 electrons
N(Beta)            :       25.000000050803 electrons
N(Total)           :       50.000000101605 electrons
E(X)               :      -23.761585947402 Eh       
E(C)               :       -2.200376069402 Eh       
E(XC)              :      -25.961962016804 Eh       
DFET-embed. en.    :        0.000000000000 Eh       

---------------
SCF CONVERGENCE
---------------

  Last Energy change         ...   -1.1388e-08  Tolerance :   1.0000e-08
  Last MAX-Density change    ...    1.7764e-15  Tolerance :   1.0000e-07
  Last RMS-Density change    ...    4.9597e-17  Tolerance :   5.0000e-09
  Last Orbital Gradient      ...    1.5196e-06  Tolerance :   1.0000e-05
  Last Orbital Rotation      ...    4.8520e-06  Tolerance :   1.0000e-05

             **** THE GBW FILE WAS UPDATED (pbeh-3c.gbw) ****
             **** DENSITY pbeh-3c.scfp WAS UPDATED ****
             **** ENERGY FILE WAS UPDATED (pbeh-3c.en.tmp) ****
             **** THE GBW FILE WAS UPDATED (pbeh-3c.gbw) ****
             **** DENSITY pbeh-3c.scfp WAS UPDATED ****
----------------
ORBITAL ENERGIES
----------------

  NO   OCC          E(Eh)            E(eV) 
   0   2.0000     -19.527427      -531.3683 
   1   2.0000     -14.640515      -398.3887 
   2   2.0000     -10.544697      -286.9358 
   3   2.0000     -10.487840      -285.3886 
   4   2.0000     -10.471548      -284.9453 
   5   2.0000     -10.454534      -284.4823 
   6   2.0000     -10.451197      -284.3915 
   7   2.0000      -1.187994       -32.3270 
   8   2.0000      -1.044743       -28.4289 
   9   2.0000      -0.905129       -24.6298 
  10   2.0000      -0.849424       -23.1140 
  11   2.0000      -0.729396       -19.8479 
  12   2.0000      -0.707828       -19.2610 
  13   2.0000      -0.624324       -16.9887 
  14   2.0000      -0.585992       -15.9456 
  15   2.0000      -0.549229       -14.9453 
  16   2.0000      -0.511141       -13.9088 
  17   2.0000      -0.499380       -13.5888 
  18   2.0000      -0.478979       -13.0337 
  19   2.0000      -0.460532       -12.5317 
  20   2.0000      -0.430016       -11.7013 
  21   2.0000      -0.411465       -11.1965 
  22   2.0000      -0.335368        -9.1258 
  23   2.0000      -0.330745        -9.0000 
  24   2.0000      -0.281048        -7.6477 
  25   0.0000      -0.003967        -0.1079 
  26   0.0000       0.025367         0.6903 
  27   0.0000       0.143546         3.9061 
  28   0.0000       0.150296         4.0898 
  29   0.0000       0.192931         5.2499 
  30   0.0000       0.202000         5.4967 
  31   0.0000       0.221227         6.0199 
  32   0.0000       0.230728         6.2784 
  33   0.0000       0.264718         7.2033 
  34   0.0000       0.294489         8.0135 
  35   0.0000       0.322169         8.7667 
  36   0.0000       0.352645         9.5959 
  37   0.0000       0.367344         9.9960 
  38   0.0000       0.458815        12.4850 
  39   0.0000       0.502294        13.6681 
  40   0.0000       0.524724        14.2785 
  41   0.0000       0.525718        14.3055 
  42   0.0000       0.575069        15.6484 
  43   0.0000       0.585134        15.9223 
  44   0.0000       0.589014        16.0279 
  45   0.0000       0.609478        16.5847 
  46   0.0000       0.619087        16.8462 
  47   0.0000       0.643226        17.5031 
  48   0.0000       0.650245        17.6941 
  49   0.0000       0.676413        18.4061 
  50   0.0000       0.696415        18.9504 
  51   0.0000       0.704853        19.1800 
  52   0.0000       0.774817        21.0838 
  53   0.0000       0.842352        22.9216 
  54   0.0000       0.932371        25.3711 
  55   0.0000       0.937415        25.5084 
  56   0.0000       0.946321        25.7507 
  57   0.0000       0.962426        26.1889 
  58   0.0000       0.982348        26.7311 
  59   0.0000       0.987621        26.8745 
  60   0.0000       1.024602        27.8808 
  61   0.0000       1.046027        28.4638 
  62   0.0000       1.053871        28.6773 
  63   0.0000       1.058965        28.8159 
  64   0.0000       1.087338        29.5880 
  65   0.0000       1.139007        30.9939 
  66   0.0000       1.172027        31.8925 
  67   0.0000       1.207472        32.8570 
  68   0.0000       1.283912        34.9370 
  69   0.0000       1.296124        35.2693 
  70   0.0000       1.312604        35.7178 
  71   0.0000       1.395363        37.9697 
  72   0.0000       1.425450        38.7885 
  73   0.0000       1.493382        40.6370 
  74   0.0000       1.514313        41.2065 
  75   0.0000       1.534237        41.7487 
  76   0.0000       1.565274        42.5933 
  77   0.0000       1.708680        46.4955 
  78   0.0000       1.766170        48.0599 
  79   0.0000       1.789422        48.6927 
  80   0.0000       1.808311        49.2067 
  81   0.0000       1.892266        51.4912 
  82   0.0000       1.942344        52.8539 
  83   0.0000       1.959093        53.3096 
  84   0.0000       2.024153        55.0800 
  85   0.0000       2.040534        55.5258 
  86   0.0000       2.072260        56.3891 
  87   0.0000       2.171974        59.1024 
  88   0.0000       2.204763        59.9946 
  89   0.0000       2.226372        60.5827 
  90   0.0000       2.246540        61.1314 
  91   0.0000       2.293039        62.3968 
  92   0.0000       2.338308        63.6286 
  93   0.0000       2.384975        64.8985 
  94   0.0000       2.398995        65.2800 
  95   0.0000       2.517862        68.5145 
  96   0.0000       2.550085        69.3913 
  97   0.0000       2.594375        70.5965 
  98   0.0000       2.640418        71.8494 
  99   0.0000       2.682412        72.9921 
 100   0.0000       2.726639        74.1956 
 101   0.0000       2.774035        75.4853 
 102   0.0000       2.811166        76.4957 
 103   0.0000       2.843991        77.3889 
 104   0.0000       2.934572        79.8538 
 105   0.0000       2.979348        81.0722 
 106   0.0000       3.216259        87.5189 
 107   0.0000       3.501646        95.2846 
 108   0.0000      13.327867       362.6697 
 109   0.0000      13.647446       371.3659 
 110   0.0000      13.916721       378.6932 
 111   0.0000      14.187322       386.0567 
 112   0.0000      14.366989       390.9456 
 113   0.0000      19.470796       529.8273 
 114   0.0000      25.688683       699.0246 

                    ********************************
                    * MULLIKEN POPULATION ANALYSIS *
                    ********************************

-----------------------
MULLIKEN ATOMIC CHARGES
-----------------------
   0 C :   -0.357831
   1 C :   -0.122180
   2 C :   -0.319903
   3 C :   -0.028525
   4 N :   -0.441708
   5 C :    0.488286
   6 O :   -0.601494
   7 H :    0.235633
   8 H :    0.228555
   9 H :    0.235007
  10 H :    0.246430
  11 H :    0.437730
Sum of atomic charges:    0.0000000

--------------------------------
MULLIKEN REDUCED ORBITAL CHARGES
--------------------------------
  0 C s       :     3.272214  s :     3.272214
      pz      :     1.063315  p :     3.048849
      px      :     0.921647
      py      :     1.063886
      dz2     :     0.004009  d :     0.036769
      dxz     :     0.004382
      dyz     :     0.003499
      dx2y2   :     0.014160
      dxy     :     0.010719
  1 C s       :     3.228396  s :     3.228396
      pz      :     0.925209  p :     2.852242
      px      :     1.022939
      py      :     0.904094
      dz2     :     0.003823  d :     0.041542
      dxz     :     0.002565
      dyz     :     0.008331
      dx2y2   :     0.015627
      dxy     :     0.011197
  2 C s       :     3.260093  s :     3.260093
      pz      :     1.056208  p :     3.021944
      px      :     0.937479
      py      :     1.028257
      dz2     :     0.003961  d :     0.037866
      dxz     :     0.004682
      dyz     :     0.003367
      dx2y2   :     0.012488
      dxy     :     0.013367
  3 C s       :     3.161211  s :     3.161211
      pz      :     0.922431  p :     2.806899
      px      :     0.940106
      py      :     0.944362
      dz2     :     0.004556  d :     0.060415
      dxz     :     0.008266
      dyz     :     0.005810
      dx2y2   :     0.019381
      dxy     :     0.022402
  4 N s       :     3.593763  s :     3.593763
      pz      :     1.207505  p :     3.807099
      px      :     1.561974
      py      :     1.037620
      dz2     :     0.004725  d :     0.040845
      dxz     :     0.006729
      dyz     :     0.006858
      dx2y2   :     0.006407
      dxy     :     0.016126
  5 C s       :     2.939196  s :     2.939196
      pz      :     0.888849  p :     2.471780
      px      :     0.881948
      py      :     0.700982
      dz2     :     0.005626  d :     0.100738
      dxz     :     0.011734
      dyz     :     0.017967
      dx2y2   :     0.030465
      dxy     :     0.034946
  6 O s       :     3.804692  s :     3.804692
      pz      :     1.846096  p :     4.765339
      px      :     1.334879
      py      :     1.584364
      dz2     :     0.005087  d :     0.031462
      dxz     :     0.000908
      dyz     :     0.005291
      dx2y2   :     0.010025
      dxy     :     0.010151
  7 H s       :     0.764367  s :     0.764367
  8 H s       :     0.771445  s :     0.771445
  9 H s       :     0.764993  s :     0.764993
 10 H s       :     0.753570  s :     0.753570
 11 H s       :     0.562270  s :     0.562270


                     *******************************
                     * LOEWDIN POPULATION ANALYSIS *
                     *******************************

----------------------
LOEWDIN ATOMIC CHARGES
----------------------
   0 C :   -0.185601
   1 C :   -0.090434
   2 C :   -0.193920
   3 C :   -0.043406
   4 N :   -0.186529
   5 C :    0.103754
   6 O :   -0.302358
   7 H :    0.142308
   8 H :    0.141781
   9 H :    0.131394
  10 H :    0.151469
  11 H :    0.331543

-------------------------------
LOEWDIN REDUCED ORBITAL CHARGES
-------------------------------
  0 C s       :     2.897028  s :     2.897028
      pz      :     1.047428  p :     3.203515
      px      :     1.065618
      py      :     1.090469
      dz2     :     0.006787  d :     0.085059
      dxz     :     0.008966
      dyz     :     0.005615
      dx2y2   :     0.035228
      dxy     :     0.028462
  1 C s       :     2.896025  s :     2.896025
      pz      :     0.919808  p :     3.101273
      px      :     1.085523
      py      :     1.095941
      dz2     :     0.006266  d :     0.093136
      dxz     :     0.003752
      dyz     :     0.017447
      dx2y2   :     0.036502
      dxy     :     0.029168
  2 C s       :     2.897017  s :     2.897017
      pz      :     1.041573  p :     3.209380
      px      :     1.088697
      py      :     1.079110
      dz2     :     0.006624  d :     0.087524
      dxz     :     0.009448
      dyz     :     0.005896
      dx2y2   :     0.032209
      dxy     :     0.033347
  3 C s       :     2.885161  s :     2.885161
      pz      :     0.919022  p :     3.024476
      px      :     1.075772
      py      :     1.029682
      dz2     :     0.008403  d :     0.133769
      dxz     :     0.016741
      dyz     :     0.010200
      dx2y2   :     0.047831
      dxy     :     0.050594
  4 N s       :     3.199201  s :     3.199201
      pz      :     1.187652  p :     3.899651
      px      :     1.566167
      py      :     1.145832
      dz2     :     0.008973  d :     0.087678
      dxz     :     0.007209
      dyz     :     0.015579
      dx2y2   :     0.018957
      dxy     :     0.036960
  5 C s       :     2.813394  s :     2.813394
      pz      :     0.885166  p :     2.854996
      px      :     1.037949
      py      :     0.931881
      dz2     :     0.013270  d :     0.227856
      dxz     :     0.023370
      dyz     :     0.035975
      dx2y2   :     0.073130
      dxy     :     0.082112
  6 O s       :     3.489861  s :     3.489861
      pz      :     1.828909  p :     4.758077
      px      :     1.330218
      py      :     1.598951
      dz2     :     0.007361  d :     0.054420
      dxz     :     0.002642
      dyz     :     0.007603
      dx2y2   :     0.018864
      dxy     :     0.017950
  7 H s       :     0.857692  s :     0.857692
  8 H s       :     0.858219  s :     0.858219
  9 H s       :     0.868606  s :     0.868606
 10 H s       :     0.848531  s :     0.848531
 11 H s       :     0.668457  s :     0.668457


                      *****************************
                      * MAYER POPULATION ANALYSIS *
                      *****************************

  NA   - Mulliken gross atomic population
  ZA   - Total nuclear charge
  QA   - Mulliken gross atomic charge
  VA   - Mayer's total valence
  BVA  - Mayer's bonded valence
  FA   - Mayer's free valence

  ATOM       NA         ZA         QA         VA         BVA        FA
  0 C      6.3578     6.0000    -0.3578     3.8145     3.8145    -0.0000
  1 C      6.1222     6.0000    -0.1222     3.7525     3.7525    -0.0000
  2 C      6.3199     6.0000    -0.3199     3.8005     3.8005     0.0000
  3 C      6.0285     6.0000    -0.0285     3.8560     3.8560     0.0000
  4 N      7.4417     7.0000    -0.4417     3.1272     3.1272     0.0000
  5 C      5.5117     6.0000     0.4883     3.9596     3.9596     0.0000
  6 O      8.6015     8.0000    -0.6015     1.9824     1.9824    -0.0000
  7 H      0.7644     1.0000     0.2356     0.9062     0.9062    -0.0000
  8 H      0.7714     1.0000     0.2286     0.9152     0.9152     0.0000
  9 H      0.7650     1.0000     0.2350     0.9003     0.9003     0.0000
 10 H      0.7536     1.0000     0.2464     0.9078     0.9078     0.0000
 11 H      0.5623     1.0000     0.4377     0.8001     0.8001    -0.0000

  Mayer bond orders larger than 0.100000
B(  0-C ,  1-C ) :   1.4590 B(  0-C ,  5-C ) :   1.3135 B(  0-C , 10-H ) :   0.9045 
B(  1-C ,  2-C ) :   1.3695 B(  1-C ,  7-H ) :   0.9186 B(  2-C ,  3-C ) :   1.4262 
B(  2-C ,  8-H ) :   0.9150 B(  3-C ,  4-N ) :   1.4556 B(  3-C ,  9-H ) :   0.9149 
B(  4-N ,  5-C ) :   1.4973 B(  5-C ,  6-O ) :   1.1102 B(  6-O , 11-H ) :   0.7616 


-------
TIMINGS
-------

Total SCF time: 0 days 0 hours 1 min 40 sec 

Total time                  ....     100.212 sec
Sum of individual times     ....      91.180 sec  ( 91.0%)

Fock matrix formation       ....      74.502 sec  ( 74.3%)
  Split-RI-J                ....       9.026 sec  ( 12.1% of F)
  Chain of spheres X        ....      26.404 sec  ( 35.4% of F)
  XC integration            ....      19.704 sec  ( 26.4% of F)
    Basis function eval.    ....       3.520 sec  ( 17.9% of XC)
    Density eval.           ....       2.072 sec  ( 10.5% of XC)
    XC-Functional eval.     ....       1.548 sec  (  7.9% of XC)
    XC-Potential eval.      ....       1.526 sec  (  7.7% of XC)
Diagonalization             ....       1.206 sec  (  1.2%)
Density matrix formation    ....       0.079 sec  (  0.1%)
Population analysis         ....       0.439 sec  (  0.4%)
Initial guess               ....       0.039 sec  (  0.0%)
Orbital Transformation      ....       0.000 sec  (  0.0%)
Orbital Orthonormalization  ....       0.000 sec  (  0.0%)
DIIS solution               ....       5.329 sec  (  5.3%)
SOSCF solution              ....       1.590 sec  (  1.6%)
Grid generation             ....       7.996 sec  (  8.0%)

Maximum memory used throughout the entire SCF-calculation: 51.7 MB


-------------------------------------------------------------------------------
                          DFT DISPERSION CORRECTION                            
                                                                               
                              DFTD3 V3.1  Rev 1                                
                          USING Becke-Johnson damping                          
-------------------------------------------------------------------------------
The PBEh-3c composite method is recognized
Using three-body term ABC
Active option DFTDOPT                   ...         4   

molecular C6(AA) [au] = 1711.116696 


            DFT-D V3
 parameters
 s6 scaling factor         :     1.0000 
 a1 scaling factor         :     0.4860 
 s8 scaling factor         :     0.0000 
 a2 scaling factor         :     4.5000 
 Damping factor alpha9(ATM):    16.0000 
 ad hoc parameters k1-k3   :    16.0000     1.3333    -4.0000 

 Edisp/kcal,au: -3.753820067931  -0.005982092419 
 E6   /kcal   :  -3.758581804 
 E8   /kcal   :  -0.000000000 
 E6(ABC)      :   0.004761736 
 % E8         :   0.000000000 
 % E6(ABC)    :  -0.126850406 

-------------------------   ----------------
Dispersion correction           -0.005982092
-------------------------   ----------------

------------------   -----------------
gCP correction             0.019869648
------------------   -----------------

-------------------------   --------------------
FINAL SINGLE POINT ENERGY      -322.814807091833
-------------------------   --------------------


                            ***************************************
                            *     ORCA property calculations      *
                            ***************************************

                                    ---------------------
                                    Active property flags
                                    ---------------------
   (+) Dipole Moment


------------------------------------------------------------------------------
                       ORCA ELECTRIC PROPERTIES CALCULATION
------------------------------------------------------------------------------

Dipole Moment Calculation                       ... on
Quadrupole Moment Calculation                   ... off
Polarizability Calculation                      ... off
GBWName                                         ... pbeh-3c.gbw
Electron density                                ... pbeh-3c.scfp
The origin for moment calculation is the CENTER OF MASS  = ( 0.465574, -0.348193  0.000000)

-------------
DIPOLE MOMENT
-------------
                                X             Y             Z
Electronic contribution:      2.02383      -1.37047      -0.00000
Nuclear contribution   :     -2.39766       1.68007       0.00000
                        -----------------------------------------
Total Dipole Moment    :     -0.37382       0.30961      -0.00000
                        -----------------------------------------
Magnitude (a.u.)       :      0.48539
Magnitude (Debye)      :      1.23375



--------------------
Rotational spectrum 
--------------------
 
Rotational constants in cm-1:     0.195522     0.092629     0.062853 
Rotational constants in MHz :  5861.595076  2776.960646  1884.275494 

 Dipole components along the rotational axes: 
x,y,z [a.u.] :    -0.469064     0.124811    -0.000000 
x,y,z [Debye]:    -1.192266     0.317244    -0.000000 

 

Timings for individual modules:

Sum of individual times         ...      104.441 sec (=   1.741 min)
GTO integral calculation        ...        3.439 sec (=   0.057 min)   3.3 %
SCF iterations                  ...      101.003 sec (=   1.683 min)  96.7 %
                             ****ORCA TERMINATED NORMALLY****
TOTAL RUN TIME: 0 days 0 hours 1 minutes 46 seconds 991 msec
