
                                 *****************
                                 * O   R   C   A *
                                 *****************

                                            #,                                       
                                            ###                                      
                                            ####                                     
                                            #####                                    
                                            ######                                   
                                           ########,                                 
                                     ,,################,,,,,                         
                               ,,#################################,,                 
                          ,,##########################################,,             
                       ,#########################################, ''#####,          
                    ,#############################################,,   '####,        
                  ,##################################################,,,,####,       
                ,###########''''           ''''###############################       
              ,#####''   ,,,,##########,,,,          '''####'''          '####       
            ,##' ,,,,###########################,,,                        '##       
           ' ,,###''''                  '''############,,,                           
         ,,##''                                '''############,,,,        ,,,,,,###''
      ,#''                                            '''#######################'''  
     '                                                          ''''####''''         
             ,#######,   #######,   ,#######,      ##                                
            ,#'     '#,  ##    ##  ,#'     '#,    #''#        ######   ,####,        
            ##       ##  ##   ,#'  ##            #'  '#       #        #'  '#        
            ##       ##  #######   ##           ,######,      #####,   #    #        
            '#,     ,#'  ##    ##  '#,     ,#' ,#      #,         ##   #,  ,#        
             '#######'   ##     ##  '#######'  #'      '#     #####' # '####'        



                  #######################################################
                  #                        -***-                        #
                  #          Department of theory and spectroscopy      #
                  #    Directorship and core code : Frank Neese         #
                  #        Max Planck Institute fuer Kohlenforschung    #
                  #                Kaiser Wilhelm Platz 1               #
                  #                 D-45470 Muelheim/Ruhr               #
                  #                      Germany                        #
                  #                                                     #
                  #                  All rights reserved                #
                  #                        -***-                        #
                  #######################################################


                         Program Version 5.0.3 -  RELEASE  -


 With contributions from (in alphabetic order):
   Daniel Aravena         : Magnetic Suceptibility
   Michael Atanasov       : Ab Initio Ligand Field Theory (pilot matlab implementation)
   Alexander A. Auer      : GIAO ZORA, VPT2 properties, NMR spectrum
   Ute Becker             : Parallelization
   Giovanni Bistoni       : ED, misc. LED, open-shell LED, HFLD
   Martin Brehm           : Molecular dynamics
   Dmytro Bykov           : SCF Hessian
   Vijay G. Chilkuri      : MRCI spin determinant printing, contributions to CSF-ICE
   Dipayan Datta          : RHF DLPNO-CCSD density
   Achintya Kumar Dutta   : EOM-CC, STEOM-CC
   Dmitry Ganyushin       : Spin-Orbit,Spin-Spin,Magnetic field MRCI
   Miquel Garcia          : C-PCM and meta-GGA Hessian, CC/C-PCM, Gaussian charge scheme
   Yang Guo               : DLPNO-NEVPT2, F12-NEVPT2, CIM, IAO-localization
   Andreas Hansen         : Spin unrestricted coupled pair/coupled cluster methods
   Benjamin Helmich-Paris : MC-RPA, TRAH-SCF, COSX integrals
   Lee Huntington         : MR-EOM, pCC
   Robert Izsak           : Overlap fitted RIJCOSX, COSX-SCS-MP3, EOM
   Marcus Kettner         : VPT2
   Christian Kollmar      : KDIIS, OOCD, Brueckner-CCSD(T), CCSD density, CASPT2, CASPT2-K
   Simone Kossmann        : Meta GGA functionals, TD-DFT gradient, OOMP2, MP2 Hessian
   Martin Krupicka        : Initial AUTO-CI
   Lucas Lang             : DCDCAS
   Marvin Lechner         : AUTO-CI (C++ implementation), FIC-MRCC
   Dagmar Lenk            : GEPOL surface, SMD
   Dimitrios Liakos       : Extrapolation schemes; Compound Job, initial MDCI parallelization
   Dimitrios Manganas     : Further ROCIS development; embedding schemes
   Dimitrios Pantazis     : SARC Basis sets
   Anastasios Papadopoulos: AUTO-CI, single reference methods and gradients
   Taras Petrenko         : DFT Hessian,TD-DFT gradient, ASA, ECA, R-Raman, ABS, FL, XAS/XES, NRVS
   Peter Pinski           : DLPNO-MP2, DLPNO-MP2 Gradient
   Christoph Reimann      : Effective Core Potentials
   Marius Retegan         : Local ZFS, SOC
   Christoph Riplinger    : Optimizer, TS searches, QM/MM, DLPNO-CCSD(T), (RO)-DLPNO pert. Triples
   Tobias Risthaus        : Range-separated hybrids, TD-DFT gradient, RPA, STAB
   Michael Roemelt        : Original ROCIS implementation
   Masaaki Saitow         : Open-shell DLPNO-CCSD energy and density
   Barbara Sandhoefer     : DKH picture change effects
   Avijit Sen             : IP-ROCIS
   Kantharuban Sivalingam : CASSCF convergence, NEVPT2, FIC-MRCI
   Bernardo de Souza      : ESD, SOC TD-DFT
   Georgi Stoychev        : AutoAux, RI-MP2 NMR, DLPNO-MP2 response
   Willem Van den Heuvel  : Paramagnetic NMR
   Boris Wezisla          : Elementary symmetry handling
   Frank Wennmohs         : Technical directorship


 We gratefully acknowledge several colleagues who have allowed us to
 interface, adapt or use parts of their codes:
   Stefan Grimme, W. Hujo, H. Kruse, P. Pracht,  : VdW corrections, initial TS optimization,
                  C. Bannwarth, S. Ehlert          DFT functionals, gCP, sTDA/sTD-DF
   Ed Valeev, F. Pavosevic, A. Kumar             : LibInt (2-el integral package), F12 methods
   Garnet Chan, S. Sharma, J. Yang, R. Olivares  : DMRG
   Ulf Ekstrom                                   : XCFun DFT Library
   Mihaly Kallay                                 : mrcc  (arbitrary order and MRCC methods)
   Jiri Pittner, Ondrej Demel                    : Mk-CCSD
   Frank Weinhold                                : gennbo (NPA and NBO analysis)
   Christopher J. Cramer and Donald G. Truhlar   : smd solvation model
   Lars Goerigk                                  : TD-DFT with DH, B97 family of functionals
   V. Asgeirsson, H. Jonsson                     : NEB implementation
   FAccTs GmbH                                   : IRC, NEB, NEB-TS, DLPNO-Multilevel, CI-OPT
                                                   MM, QMMM, 2- and 3-layer-ONIOM, Crystal-QMMM,
                                                   LR-CPCM, SF, NACMEs, symmetry and pop. for TD-DFT,
                                                   nearIR, NL-DFT gradient (VV10), updates on ESD,
                                                   ML-optimized integration grids
   S Lehtola, MJT Oliveira, MAL Marques          : LibXC Library
   Liviu Ungur et al                             : ANISO software


 Your calculation uses the libint2 library for the computation of 2-el integrals
 For citations please refer to: http://libint.valeyev.net

 Your ORCA version has been built with support for libXC version: 5.1.0
 For citations please refer to: https://tddft.org/programs/libxc/

 This ORCA versions uses:
   CBLAS   interface :  Fast vector & matrix operations
   LAPACKE interface :  Fast linear algebra routines
   SCALAPACK package :  Parallel linear algebra routines
   Shared memory     :  Shared parallel matrices
   BLAS/LAPACK       :  OpenBLAS 0.3.15  USE64BITINT DYNAMIC_ARCH NO_AFFINITY Haswell SINGLE_THREADED
        Core in use  :  Haswell
   Copyright (c) 2011-2014, The OpenBLAS Project




***************************************
The coordinates will be read from file: BF3PMe3.xyz
***************************************


Your calculation utilizes the geometrical counterpoise correction gCP
Please cite in your paper:
H.Kruse, S. Grimme J.Chem.Phys., 136, (2012), 154101 
   

Your calculation utilizes the atom-pairwise dispersion correction
with the Becke-Johnson damping scheme (D3BJ)
Cite in your paper:
S.Grimme, S.Ehrlich, L.Goerigk, J Comput Chem, (2011), 32, 1456–1465 
S.Grimme, J.Antony, S.Ehrlich and H.Krieg, J.Chem.Phys., 132, (2010), 154104 
   

Your calculation employs the composite approach PBEh-3c.
Please cite in your paper:
S. Grimme, J. G. Brandenburg, C. Bannwarth, A. Hansen J.Chem.Phys., 143, (2015), 054107 
   

================================================================================

----- Orbital basis set information -----
Your calculation utilizes the basis: def2-mSVP

----- AuxJ basis set information -----
Your calculation utilizes the auxiliary basis: def2/J
   F. Weigend, Phys. Chem. Chem. Phys. 8, 1057 (2006).

================================================================================
                                        WARNINGS
                       Please study these warnings very carefully!
================================================================================


INFO   : the flag for use of the SHARK integral package has been found!

================================================================================
                                       INPUT FILE
================================================================================
NAME = pbeh-3c.inp
|  1> ! PBEh-3c def2/J TightSCF DefGrid3
|  2> 
|  3> %maxcore 60000
|  4> 
|  5> %pal
|  6> nprocs 4
|  7> end
|  8> 
|  9> *xyzfile 0 1 BF3PMe3.xyz
| 10> 
| 11>                          ****END OF INPUT****
================================================================================

                       ****************************
                       * Single Point Calculation *
                       ****************************

---------------------------------
CARTESIAN COORDINATES (ANGSTROEM)
---------------------------------
  B      0.000000    0.000000   -1.321669
  P      0.000000    0.000000    0.761348
  C      1.468371   -0.847765    1.457600
  C     -1.468371   -0.847765    1.457600
  C      0.000000    1.695529    1.457600
  F     -1.156656    0.667795   -1.678901
  F      0.000000   -1.335591   -1.678901
  F      1.156656    0.667795   -1.678901
  H      0.886786    2.221462    1.103199
  H     -0.886786    2.221462    1.103199
  H      0.000000    1.678873    2.554157
  H     -2.367236   -0.342752    1.103199
  H     -1.480450   -1.878711    1.103199
  H     -1.453946   -0.839436    2.554157
  H      1.453946   -0.839436    2.554157
  H      1.480450   -1.878711    1.103199
  H      2.367236   -0.342752    1.103199

----------------------------
CARTESIAN COORDINATES (A.U.)
----------------------------
  NO LB      ZA    FRAG     MASS         X           Y           Z
   0 B     5.0000    0    10.810    0.000000    0.000000   -2.497592
   1 P    15.0000    0    30.974    0.000000    0.000000    1.438739
   2 C     6.0000    0    12.011    2.774819   -1.602043    2.754465
   3 C     6.0000    0    12.011   -2.774819   -1.602043    2.754465
   4 C     6.0000    0    12.011    0.000000    3.204085    2.754465
   5 F     9.0000    0    18.998   -2.185763    1.261950   -3.172663
   6 F     9.0000    0    18.998    0.000000   -2.523901   -3.172663
   7 F     9.0000    0    18.998    2.185763    1.261950   -3.172663
   8 H     1.0000    0     1.008    1.675782    4.197954    2.084744
   9 H     1.0000    0     1.008   -1.675782    4.197954    2.084744
  10 H     1.0000    0     1.008    0.000000    3.172610    4.826657
  11 H     1.0000    0     1.008   -4.473427   -0.647707    2.084744
  12 H     1.0000    0     1.008   -2.797645   -3.550249    2.084744
  13 H     1.0000    0     1.008   -2.747560   -1.586304    4.826657
  14 H     1.0000    0     1.008    2.747560   -1.586304    4.826657
  15 H     1.0000    0     1.008    2.797645   -3.550249    2.084744
  16 H     1.0000    0     1.008    4.473427   -0.647707    2.084744

--------------------------------
INTERNAL COORDINATES (ANGSTROEM)
--------------------------------
 B      0   0   0     0.000000000000     0.00000000     0.00000000
 P      1   0   0     2.083016800000     0.00000000     0.00000000
 C      2   1   0     1.832917148467   112.32501412     0.00000000
 C      2   1   3     1.832917148467   112.32501412   240.00003311
 C      2   1   3     1.832917100755   112.32501473   120.00001655
 F      1   2   3     1.382540319432   104.97444062   179.99996133
 F      1   2   3     1.382540326351   104.97444054    59.99998345
 F      1   2   3     1.382540319432   104.97444062   300.00000556
 H      5   2   1     1.090226910575   108.83028860   300.75168157
 H      5   2   1     1.090226910575   108.83028860    59.24831843
 H      5   2   1     1.096683389714   111.45479530   180.00000000
 H      4   2   1     1.090227593863   108.83028857   300.75166564
 H      4   2   1     1.090227327651   108.83033676    59.24829551
 H      4   2   1     1.096683403633   111.45474681   180.00003485
 H      3   2   1     1.096683403633   111.45474681   179.99996515
 H      3   2   1     1.090227327651   108.83033676   300.75170449
 H      3   2   1     1.090227593863   108.83028857    59.24833436

---------------------------
INTERNAL COORDINATES (A.U.)
---------------------------
 B      0   0   0     0.000000000000     0.00000000     0.00000000
 P      1   0   0     3.936331284357     0.00000000     0.00000000
 C      2   1   0     3.463711436770   112.32501412     0.00000000
 C      2   1   3     3.463711436770   112.32501412   240.00003311
 C      2   1   3     3.463711346607   112.32501473   120.00001655
 F      1   2   3     2.612622572830   104.97444062   179.99996133
 F      1   2   3     2.612622585906   104.97444054    59.99998345
 F      1   2   3     2.612622572830   104.97444062   300.00000556
 H      5   2   1     2.060230284818   108.83028860   300.75168157
 H      5   2   1     2.060230284818   108.83028860    59.24831843
 H      5   2   1     2.072431262179   111.45479530   180.00000000
 H      4   2   1     2.060231576044   108.83028857   300.75166564
 H      4   2   1     2.060231072978   108.83033676    59.24829551
 H      4   2   1     2.072431288483   111.45474681   180.00003485
 H      3   2   1     2.072431288483   111.45474681   179.99996515
 H      3   2   1     2.060231072978   108.83033676   300.75170449
 H      3   2   1     2.060231576044   108.83028857    59.24833436

---------------------
BASIS SET INFORMATION
---------------------
There are 5 groups of distinct atoms

 Group   1 Type B   : 8s4p1d contracted to 4s2p1d pattern {5111/31/1}
 Group   2 Type P   : 10s7p1d contracted to 4s3p1d pattern {5311/511/1}
 Group   3 Type C   : 8s4p1d contracted to 4s2p1d pattern {5111/31/1}
 Group   4 Type F   : 8s4p1d contracted to 4s2p1d pattern {5111/31/1}
 Group   5 Type H   : 4s contracted to 2s pattern {31}

Atom   0B    basis set group =>   1
Atom   1P    basis set group =>   2
Atom   2C    basis set group =>   3
Atom   3C    basis set group =>   3
Atom   4C    basis set group =>   3
Atom   5F    basis set group =>   4
Atom   6F    basis set group =>   4
Atom   7F    basis set group =>   4
Atom   8H    basis set group =>   5
Atom   9H    basis set group =>   5
Atom  10H    basis set group =>   5
Atom  11H    basis set group =>   5
Atom  12H    basis set group =>   5
Atom  13H    basis set group =>   5
Atom  14H    basis set group =>   5
Atom  15H    basis set group =>   5
Atom  16H    basis set group =>   5
---------------------------------
AUXILIARY/J BASIS SET INFORMATION
---------------------------------
There are 5 groups of distinct atoms

 Group   1 Type B   : 12s5p4d2f1g contracted to 6s4p3d1f1g pattern {711111/2111/211/2/1}
 Group   2 Type P   : 14s5p5d2f1g contracted to 8s4p3d1f1g pattern {71111111/2111/311/2/1}
 Group   3 Type C   : 12s5p4d2f1g contracted to 6s4p3d1f1g pattern {711111/2111/211/2/1}
 Group   4 Type F   : 12s5p4d2f1g contracted to 6s4p3d1f1g pattern {711111/2111/211/2/1}
 Group   5 Type H   : 5s2p1d contracted to 3s1p1d pattern {311/2/1}

Atom   0B    basis set group =>   1
Atom   1P    basis set group =>   2
Atom   2C    basis set group =>   3
Atom   3C    basis set group =>   3
Atom   4C    basis set group =>   3
Atom   5F    basis set group =>   4
Atom   6F    basis set group =>   4
Atom   7F    basis set group =>   4
Atom   8H    basis set group =>   5
Atom   9H    basis set group =>   5
Atom  10H    basis set group =>   5
Atom  11H    basis set group =>   5
Atom  12H    basis set group =>   5
Atom  13H    basis set group =>   5
Atom  14H    basis set group =>   5
Atom  15H    basis set group =>   5
Atom  16H    basis set group =>   5


           ************************************************************
           *        Program running with 4 parallel MPI-processes     *
           *              working on a common directory               *
           ************************************************************
------------------------------------------------------------------------------
                           ORCA GTO INTEGRAL CALCULATION
                           -- RI-GTO INTEGRALS CHOSEN --
------------------------------------------------------------------------------
------------------------------------------------------------------------------
                   ___                                                        
                  /   \      - P O W E R E D   B Y -                         
                 /     \                                                     
                 |  |  |   _    _      __       _____    __    __             
                 |  |  |  | |  | |    /  \     |  _  \  |  |  /  |          
                  \  \/   | |  | |   /    \    | | | |  |  | /  /          
                 / \  \   | |__| |  /  /\  \   | |_| |  |  |/  /          
                |  |  |   |  __  | /  /__\  \  |    /   |      \           
                |  |  |   | |  | | |   __   |  |    \   |  |\   \          
                \     /   | |  | | |  |  |  |  | |\  \  |  | \   \       
                 \___/    |_|  |_| |__|  |__|  |_| \__\ |__|  \__/        
                                                                              
                      - O R C A' S   B I G   F R I E N D -                    
                                      &                                       
                       - I N T E G R A L  F E E D E R -                       
                                                                              
 v1 FN, 2020, v2 2021                                                         
------------------------------------------------------------------------------


Reading SHARK input file pbeh-3c.SHARKINP.tmp ... ok
----------------------
SHARK INTEGRAL PACKAGE
----------------------

Number of atoms                             ...     17
Number of basis functions                   ...    141
Number of shells                            ...     75
Maximum angular momentum                    ...      2
Integral batch strategy                     ... SHARK/LIBINT Hybrid
RI-J (if used) integral strategy            ... SPLIT-RIJ (Revised 2003 algorithm where possible)
Printlevel                                  ...      1
Contraction scheme used                     ... SEGMENTED contraction
Coulomb Range Separation                    ... NOT USED
Exchange Range Separation                   ... NOT USED
Finite Nucleus Model                        ... NOT USED
Auxiliary Coulomb fitting basis             ... AVAILABLE
   # of basis functions in Aux-J            ...    493
   # of shells in Aux-J                     ...    167
   Maximum angular momentum in Aux-J        ...      4
Auxiliary J/K fitting basis                 ... NOT available
Auxiliary Correlation fitting basis         ... NOT available
Auxiliary 'external' fitting basis          ... NOT available
Integral threshold                          ...     2.500000e-11
Primitive cut-off                           ...     2.500000e-12
Primitive pair pre-selection threshold      ...     2.500000e-12

Calculating pre-screening integrals         ... done (  0.1 sec) Dimension = 75
Organizing shell pair data                  ... done (  0.4 sec)
Shell pair information
Total number of shell pairs                 ...      2850
Shell pairs after pre-screening             ...      2560
Total number of primitive shell pairs       ...     10726
Primitive shell pairs kept                  ...      6635
          la=0 lb=0:   1060 shell pairs
          la=1 lb=0:    802 shell pairs
          la=1 lb=1:    153 shell pairs
          la=2 lb=0:    376 shell pairs
          la=2 lb=1:    133 shell pairs
          la=2 lb=2:     36 shell pairs

Calculating one electron integrals          ... done (  0.0 sec)
Calculating RI/J V-Matrix + Cholesky decomp.... done (  0.4 sec)
Calculating Nuclear repulsion               ... done (  0.0 sec) ENN=    501.585717004366 Eh

SHARK setup successfully completed in   1.8 seconds

Maximum memory used throughout the entire GTOINT-calculation: 11.2 MB


           ************************************************************
           *        Program running with 4 parallel MPI-processes     *
           *              working on a common directory               *
           ************************************************************
-------------------------------------------------------------------------------
                                 ORCA SCF
-------------------------------------------------------------------------------

------------
SCF SETTINGS
------------
Hamiltonian:
 Density Functional     Method          .... DFT(GTOs)
 Exchange Functional    Exchange        .... PBE
   PBE kappa parameter   XKappa         ....  1.024500
   PBE mue parameter    XMuePBE         ....  0.123457
 Correlation Functional Correlation     .... PBE
   PBE beta parameter  CBetaPBE         ....  0.030000
 LDA part of GGA corr.  LDAOpt          .... PW91-LDA
 Gradients option       PostSCFGGA      .... off
 Hybrid DFT is turned on
   Fraction HF Exchange ScalHFX         ....  0.420000
   Scaling of DF-GGA-X  ScalDFX         ....  0.580000
   Scaling of DF-GGA-C  ScalDFC         ....  1.000000
   Scaling of DF-LDA-C  ScalLDAC        ....  1.000000
   Perturbative correction              ....  0.000000
   Density functional embedding theory  .... OFF
 RI-approximation to the Coulomb term is turned on
   Number of AuxJ basis functions       .... 493
   RIJ-ON(X) (HFX calculated with O(N)) .... on
   Number of AuxJ basis functions       .... 493
   RIJ-COSX (HFX calculated with COS-X)).... on


General Settings:
 Integral files         IntName         .... pbeh-3c
 Hartree-Fock type      HFTyp           .... RHF
 Total Charge           Charge          ....    0
 Multiplicity           Mult            ....    1
 Number of Electrons    NEL             ....   74
 Basis Dimension        Dim             ....  141
 Nuclear Repulsion      ENuc            ....    501.5857170044 Eh

Convergence Acceleration:
 DIIS                   CNVDIIS         .... on
   Start iteration      DIISMaxIt       ....    12
   Startup error        DIISStart       ....  0.200000
   # of expansion vecs  DIISMaxEq       ....     5
   Bias factor          DIISBfac        ....   1.050
   Max. coefficient     DIISMaxC        ....  10.000
 Trust-Rad. Augm. Hess. CNVTRAH         .... auto
   Auto Start mean grad. ratio tolernc. ....  1.125000
   Auto Start start iteration           ....    20
   Auto Start num. interpolation iter.  ....    10
   Max. Number of Micro iterations      ....    16
   Max. Number of Macro iterations      .... Maxiter - #DIIS iter
   Number of Davidson start vectors     ....     2
   Converg. threshold I  (grad. norm)   ....   1.000e-05
   Converg. threshold II (energy diff.) ....   1.000e-08
   Grad. Scal. Fac. for Micro threshold ....   0.100
   Minimum threshold for Micro iter.    ....   0.010
   NR start threshold (gradient norm)   ....   0.001
   Initial trust radius                 ....   0.400
   Minimum AH scaling param. (alpha)    ....   1.000
   Maximum AH scaling param. (alpha)    .... 1000.000
   Orbital update algorithm             .... Taylor
   White noise on init. David. guess    .... on
   Maximum white noise                  ....   0.010
   Quad. conv. algorithm                .... NR
   COSX micro iterations for RIJONX calc.... off
 SOSCF                  CNVSOSCF        .... on
   Start iteration      SOSCFMaxIt      ....   150
   Startup grad/error   SOSCFStart      ....  0.003300
 Level Shifting         CNVShift        .... on
   Level shift para.    LevelShift      ....    0.2500
   Turn off err/grad.   ShiftErr        ....    0.0010
 Zerner damping         CNVZerner       .... off
 Static damping         CNVDamp         .... on
   Fraction old density DampFac         ....    0.7000
   Max. Damping (<1)    DampMax         ....    0.9800
   Min. Damping (>=0)   DampMin         ....    0.0000
   Turn off err/grad.   DampErr         ....    0.1000
 Fernandez-Rico         CNVRico         .... off

SCF Procedure:
 Maximum # iterations   MaxIter         ....   125
 SCF integral mode      SCFMode         .... Direct
   Integral package                     .... SHARK and LIBINT hybrid scheme
 Reset frequency        DirectResetFreq ....    20
 Integral Threshold     Thresh          ....  2.500e-11 Eh
 Primitive CutOff       TCut            ....  2.500e-12 Eh

Convergence Tolerance:
 Convergence Check Mode ConvCheckMode   .... Total+1el-Energy
 Convergence forced     ConvForced      .... 0
 Energy Change          TolE            ....  1.000e-08 Eh
 1-El. energy change                    ....  1.000e-05 Eh
 Orbital Gradient       TolG            ....  1.000e-05
 Orbital Rotation angle TolX            ....  1.000e-05
 DIIS Error             TolErr          ....  5.000e-07


Diagonalization of the overlap matrix:
Smallest eigenvalue                        ... 3.775e-03
Time for diagonalization                   ...    0.004 sec
Threshold for overlap eigenvalues          ... 1.000e-08
Number of eigenvalues below threshold      ... 0
Time for construction of square roots      ...    0.005 sec
Total time needed                          ...    0.009 sec

--------------------------------
INITIAL GUESS: MINIMAL BASIS EHT
--------------------------------
The minimal basis has 53 functions
EHT matrix was diagonalized
Basis set overlap was calculated now projecting the orbitals
Using GuessMode=FMatrix for the initial guess
C*T matrix was formed
Effective Fockian was calculated
Effective Fockian was diagonalized
Initial density was built
                      ------------------
                      INITIAL GUESS DONE
                      ------------------
-------------------
DFT GRID GENERATION
-------------------

General Integration Accuracy     IntAcc      ... 4.959
Radial Grid Type                 RadialGrid  ... OptM3 with GC (2021)
Angular Grid (max. ang.)         AngularGrid ... 6 (Lebedev-590)
Angular grid pruning method      GridPruning ... 4 (adaptive)
Weight generation scheme         WeightScheme... Becke
Basis function cutoff            BFCut       ... 1.0000e-11
Integration weight cutoff        WCut        ... 1.0000e-14
Angular grids for H and He will be reduced by one unit
Partially contracted basis set               ... off
Rotationally invariant grid construction     ... off

Total number of grid points                  ...   194895
Total number of batches                      ...     3052
Average number of points per batch           ...       63
Average number of grid points per atom       ...    11464
Time for grid setup =    4.640 sec

--------------------
COSX GRID GENERATION
--------------------

GRIDX 1
-------
General Integration Accuracy     IntAcc      ... 4.020
Radial Grid Type                 RadialGrid  ... OptM3 with GC (2021)
Angular Grid (max. ang.)         AngularGrid ... 2 (Lebedev-110)
Angular grid pruning method      GridPruning ... 4 (adaptive)
Weight generation scheme         WeightScheme... Becke
Basis function cutoff            BFCut       ... 1.0000e-11
Integration weight cutoff        WCut        ... 1.0000e-14
Angular grids for H and He will be reduced by one unit
Partially contracted basis set               ... on
Rotationally invariant grid construction     ... off

Total number of grid points                  ...    21503
Total number of batches                      ...      345
Average number of points per batch           ...       62
Average number of grid points per atom       ...     1265
UseSFitting                                  ... on

GRIDX 2
-------
General Integration Accuracy     IntAcc      ... 4.338
Radial Grid Type                 RadialGrid  ... OptM3 with GC (2021)
Angular Grid (max. ang.)         AngularGrid ... 3 (Lebedev-194)
Angular grid pruning method      GridPruning ... 4 (adaptive)
Weight generation scheme         WeightScheme... Becke
Basis function cutoff            BFCut       ... 1.0000e-11
Integration weight cutoff        WCut        ... 1.0000e-14
Angular grids for H and He will be reduced by one unit
Partially contracted basis set               ... on
Rotationally invariant grid construction     ... off

Total number of grid points                  ...    47647
Total number of batches                      ...      750
Average number of points per batch           ...       63
Average number of grid points per atom       ...     2803
UseSFitting                                  ... on

GRIDX 3
-------
General Integration Accuracy     IntAcc      ... 4.871
Radial Grid Type                 RadialGrid  ... OptM3 with GC (2021)
Angular Grid (max. ang.)         AngularGrid ... 4 (Lebedev-302)
Angular grid pruning method      GridPruning ... 4 (adaptive)
Weight generation scheme         WeightScheme... Becke
Basis function cutoff            BFCut       ... 1.0000e-11
Integration weight cutoff        WCut        ... 1.0000e-14
Angular grids for H and He will be reduced by one unit
Partially contracted basis set               ... on
Rotationally invariant grid construction     ... off

Total number of grid points                  ...    91297
Total number of batches                      ...     1435
Average number of points per batch           ...       63
Average number of grid points per atom       ...     5370
UseSFitting                                  ... on

Time for X-Grid setup             =    5.375 sec

--------------
SCF ITERATIONS
--------------
ITER       Energy         Delta-E        Max-DP      RMS-DP      [F,P]     Damp
               ***  Starting incremental Fock matrix formation  ***
  0   -782.5777957977   0.000000000000 0.19206691  0.00736903  0.6910596 0.7000
  1   -783.2748927332  -0.697096935433 0.09313756  0.00395719  0.3008016 0.7000
                               ***Turning on DIIS***
  2   -783.6231211113  -0.348228378090 0.04290268  0.00203778  0.1873526 0.7000
  3   -783.8593035121  -0.236182400813 0.03357172  0.00126581  0.1317760 0.7000
  4   -784.0266916678  -0.167388155728 0.07543589  0.00303504  0.0922879 0.0000
  5   -784.4232879834  -0.396596315649 0.01497342  0.00031053  0.0134650 0.0000
  6   -784.4237331052  -0.000445121725 0.00318172  0.00011113  0.0059817 0.0000
                      *** Initiating the SOSCF procedure ***
                           *** Shutting down DIIS ***
                      *** Re-Reading the Fockian *** 
                      *** Removing any level shift *** 
ITER      Energy       Delta-E        Grad      Rot      Max-DP    RMS-DP
  7   -784.42383631  -0.0001032087  0.000434  0.000434  0.003108  0.000076
               *** Restarting incremental Fock matrix formation ***
  8   -784.42380976   0.0000265550  0.000089  0.000118  0.000899  0.000013
  9   -784.42380996  -0.0000002014  0.000063  0.000044  0.000251  0.000005
 10   -784.42381009  -0.0000001300  0.000014  0.000017  0.000043  0.000001
 11   -784.42381009   0.0000000005  0.000011  0.000004  0.000015  0.000000
                 **** Energy Check signals convergence ****
              ***Rediagonalizing the Fockian in SOSCF/NRSCF***

               *****************************************************
               *                     SUCCESS                       *
               *           SCF CONVERGED AFTER  12 CYCLES          *
               *****************************************************

Old exchange energy                            =    -31.755856251 Eh
New exchange energy                            =    -31.755855038 Eh
Exchange energy change after final integration =      0.000001213 Eh
Total energy after final integration           =   -784.423808878 Eh
Final COS-X integration done in                =     5.596 sec

----------------
TOTAL SCF ENERGY
----------------

Total Energy       :         -784.42380888 Eh          -21345.25701 eV

Components:
Nuclear Repulsion  :          501.58571700 Eh           13648.84125 eV
Electronic Energy  :        -1286.00952588 Eh          -34994.09826 eV
One Electron Energy:        -2082.51457904 Eh          -56668.10265 eV
Two Electron Energy:          796.50505316 Eh           21674.00438 eV
Max COSX asymmetry :            0.00001256 Eh               0.00034 eV

Virial components:
Potential Energy   :        -1565.22074995 Eh          -42591.82193 eV
Kinetic Energy     :          780.79694107 Eh           21246.56492 eV
Virial Ratio       :            2.00464508


DFT components:
N(Alpha)           :       37.000011990744 electrons
N(Beta)            :       37.000011990744 electrons
N(Total)           :       74.000023981487 electrons
E(X)               :      -42.264020914380 Eh       
E(C)               :       -3.388947779055 Eh       
E(XC)              :      -45.652968693435 Eh       
DFET-embed. en.    :        0.000000000000 Eh       

---------------
SCF CONVERGENCE
---------------

  Last Energy change         ...   -8.8937e-10  Tolerance :   1.0000e-08
  Last MAX-Density change    ...    3.1086e-15  Tolerance :   1.0000e-07
  Last RMS-Density change    ...    6.4385e-17  Tolerance :   5.0000e-09
  Last Orbital Gradient      ...    1.2235e-06  Tolerance :   1.0000e-05
  Last Orbital Rotation      ...    1.1105e-06  Tolerance :   1.0000e-05

             **** THE GBW FILE WAS UPDATED (pbeh-3c.gbw) ****
             **** DENSITY pbeh-3c.scfp WAS UPDATED ****
             **** ENERGY FILE WAS UPDATED (pbeh-3c.en.tmp) ****
             **** THE GBW FILE WAS UPDATED (pbeh-3c.gbw) ****
             **** DENSITY pbeh-3c.scfp WAS UPDATED ****
----------------
ORBITAL ENERGIES
----------------

  NO   OCC          E(Eh)            E(eV) 
   0   2.0000     -77.792751     -2116.8484 
   1   2.0000     -25.039782      -681.3671 
   2   2.0000     -25.039654      -681.3636 
   3   2.0000     -25.039644      -681.3634 
   4   2.0000     -10.471707      -284.9496 
   5   2.0000     -10.471707      -284.9496 
   6   2.0000     -10.471687      -284.9491 
   7   2.0000      -7.049982      -191.8398 
   8   2.0000      -6.864882      -186.8029 
   9   2.0000      -4.956135      -134.8633 
  10   2.0000      -4.956135      -134.8633 
  11   2.0000      -4.954061      -134.8069 
  12   2.0000      -1.294641       -35.2290 
  13   2.0000      -1.252437       -34.0805 
  14   2.0000      -1.252436       -34.0805 
  15   2.0000      -0.893474       -24.3127 
  16   2.0000      -0.813404       -22.1338 
  17   2.0000      -0.813402       -22.1338 
  18   2.0000      -0.657716       -17.8974 
  19   2.0000      -0.598371       -16.2825 
  20   2.0000      -0.546894       -14.8817 
  21   2.0000      -0.546452       -14.8697 
  22   2.0000      -0.546451       -14.8697 
  23   2.0000      -0.522391       -14.2150 
  24   2.0000      -0.522388       -14.2149 
  25   2.0000      -0.500702       -13.6248 
  26   2.0000      -0.494241       -13.4490 
  27   2.0000      -0.494238       -13.4489 
  28   2.0000      -0.479815       -13.0564 
  29   2.0000      -0.455675       -12.3995 
  30   2.0000      -0.455675       -12.3995 
  31   2.0000      -0.435461       -11.8495 
  32   2.0000      -0.435461       -11.8495 
  33   2.0000      -0.422221       -11.4892 
  34   2.0000      -0.422221       -11.4892 
  35   2.0000      -0.410450       -11.1689 
  36   2.0000      -0.328062        -8.9270 
  37   0.0000       0.073184         1.9914 
  38   0.0000       0.073188         1.9915 
  39   0.0000       0.100428         2.7328 
  40   0.0000       0.117821         3.2061 
  41   0.0000       0.133115         3.6222 
  42   0.0000       0.133116         3.6223 
  43   0.0000       0.151305         4.1172 
  44   0.0000       0.186571         5.0769 
  45   0.0000       0.186574         5.0769 
  46   0.0000       0.198666         5.4060 
  47   0.0000       0.198667         5.4060 
  48   0.0000       0.208763         5.6807 
  49   0.0000       0.226092         6.1523 
  50   0.0000       0.246287         6.7018 
  51   0.0000       0.298156         8.1132 
  52   0.0000       0.298157         8.1133 
  53   0.0000       0.356822         9.7096 
  54   0.0000       0.417060        11.3488 
  55   0.0000       0.417062        11.3488 
  56   0.0000       0.457340        12.4448 
  57   0.0000       0.486727        13.2445 
  58   0.0000       0.486730        13.2446 
  59   0.0000       0.501580        13.6487 
  60   0.0000       0.501594        13.6491 
  61   0.0000       0.516861        14.0645 
  62   0.0000       0.587276        15.9806 
  63   0.0000       0.621720        16.9179 
  64   0.0000       0.621724        16.9180 
  65   0.0000       0.672285        18.2938 
  66   0.0000       0.691950        18.8289 
  67   0.0000       0.691959        18.8292 
  68   0.0000       0.699513        19.0347 
  69   0.0000       0.699525        19.0350 
  70   0.0000       0.709966        19.3192 
  71   0.0000       0.721818        19.6417 
  72   0.0000       0.925353        25.1801 
  73   0.0000       0.964832        26.2544 
  74   0.0000       0.964835        26.2545 
  75   0.0000       0.968948        26.3664 
  76   0.0000       0.968951        26.3665 
  77   0.0000       0.977752        26.6060 
  78   0.0000       0.988152        26.8890 
  79   0.0000       1.010269        27.4908 
  80   0.0000       1.044681        28.4272 
  81   0.0000       1.044682        28.4272 
  82   0.0000       1.087944        29.6045 
  83   0.0000       1.087945        29.6045 
  84   0.0000       1.103200        30.0196 
  85   0.0000       1.103200        30.0196 
  86   0.0000       1.216659        33.1070 
  87   0.0000       1.232969        33.5508 
  88   0.0000       1.232971        33.5508 
  89   0.0000       1.241235        33.7757 
  90   0.0000       1.241245        33.7760 
  91   0.0000       1.267052        34.4783 
  92   0.0000       1.267054        34.4783 
  93   0.0000       1.284154        34.9436 
  94   0.0000       1.296886        35.2901 
  95   0.0000       1.315541        35.7977 
  96   0.0000       1.315546        35.7978 
  97   0.0000       1.359000        36.9803 
  98   0.0000       1.385573        37.7034 
  99   0.0000       1.386783        37.7363 
 100   0.0000       1.386793        37.7366 
 101   0.0000       1.410383        38.3785 
 102   0.0000       1.410392        38.3787 
 103   0.0000       1.452991        39.5379 
 104   0.0000       1.657674        45.1076 
 105   0.0000       1.657676        45.1077 
 106   0.0000       1.678522        45.6749 
 107   0.0000       1.742131        47.4058 
 108   0.0000       1.746713        47.5305 
 109   0.0000       1.746713        47.5305 
 110   0.0000       1.782322        48.4994 
 111   0.0000       1.883109        51.2420 
 112   0.0000       1.883110        51.2420 
 113   0.0000       1.928082        52.4658 
 114   0.0000       1.975528        53.7568 
 115   0.0000       1.975546        53.7573 
 116   0.0000       2.015066        54.8327 
 117   0.0000       2.094230        56.9869 
 118   0.0000       2.223649        60.5086 
 119   0.0000       2.223649        60.5086 
 120   0.0000       2.244101        61.0651 
 121   0.0000       2.283717        62.1431 
 122   0.0000       2.283718        62.1431 
 123   0.0000       2.291339        62.3505 
 124   0.0000       2.307369        62.7867 
 125   0.0000       2.307370        62.7867 
 126   0.0000       2.361887        64.2702 
 127   0.0000       2.361888        64.2702 
 128   0.0000       2.403303        65.3972 
 129   0.0000       2.600045        70.7508 
 130   0.0000       2.600045        70.7508 
 131   0.0000       3.255083        88.5753 
 132   0.0000       3.255091        88.5755 
 133   0.0000       3.302084        89.8543 
 134   0.0000       9.831384       267.5256 
 135   0.0000      13.708799       373.0354 
 136   0.0000      13.724910       373.4738 
 137   0.0000      13.724911       373.4738 
 138   0.0000      32.753781       891.2757 
 139   0.0000      32.753793       891.2760 
 140   0.0000      33.105073       900.8348 

                    ********************************
                    * MULLIKEN POPULATION ANALYSIS *
                    ********************************

-----------------------
MULLIKEN ATOMIC CHARGES
-----------------------
   0 B :    0.818900
   1 P :    0.413157
   2 C :   -0.844906
   3 C :   -0.844906
   4 C :   -0.844808
   5 F :   -0.363683
   6 F :   -0.363671
   7 F :   -0.363683
   8 H :    0.275643
   9 H :    0.275643
  10 H :    0.246552
  11 H :    0.275664
  12 H :    0.275663
  13 H :    0.246553
  14 H :    0.246553
  15 H :    0.275663
  16 H :    0.275664
Sum of atomic charges:    0.0000000

--------------------------------
MULLIKEN REDUCED ORBITAL CHARGES
--------------------------------
  0 B s       :     2.465821  s :     2.465821
      pz      :     0.514759  p :     1.587765
      px      :     0.536505
      py      :     0.536501
      dz2     :     0.023739  d :     0.127513
      dxz     :     0.015779
      dyz     :     0.015779
      dx2y2   :     0.036107
      dxy     :     0.036108
  1 P s       :     5.412299  s :     5.412299
      pz      :     3.308221  p :     8.959633
      px      :     2.825705
      py      :     2.825707
      dz2     :     0.040800  d :     0.214911
      dxz     :     0.036303
      dyz     :     0.036303
      dx2y2   :     0.050753
      dxy     :     0.050753
  2 C s       :     3.443207  s :     3.443207
      pz      :     1.131933  p :     3.372712
      px      :     1.086261
      py      :     1.154518
      dz2     :     0.010111  d :     0.028986
      dxz     :     0.003500
      dyz     :     0.003590
      dx2y2   :     0.006395
      dxy     :     0.005389
  3 C s       :     3.443207  s :     3.443207
      pz      :     1.131933  p :     3.372712
      px      :     1.086261
      py      :     1.154518
      dz2     :     0.010111  d :     0.028986
      dxz     :     0.003500
      dyz     :     0.003590
      dx2y2   :     0.006395
      dxy     :     0.005389
  4 C s       :     3.443174  s :     3.443174
      pz      :     1.131917  p :     3.372648
      px      :     1.188630
      py      :     1.052101
      dz2     :     0.010111  d :     0.028986
      dxz     :     0.003635
      dyz     :     0.003455
      dx2y2   :     0.004886
      dxy     :     0.006898
  5 F s       :     3.893428  s :     3.893428
      pz      :     1.877335  p :     5.458705
      px      :     1.725815
      py      :     1.855555
      dz2     :     0.002091  d :     0.011550
      dxz     :     0.002739
      dyz     :     0.001421
      dx2y2   :     0.002236
      dxy     :     0.003063
  6 F s       :     3.893428  s :     3.893428
      pz      :     1.877326  p :     5.458693
      px      :     1.920417
      py      :     1.660950
      dz2     :     0.002091  d :     0.011550
      dxz     :     0.000763
      dyz     :     0.003398
      dx2y2   :     0.003477
      dxy     :     0.001822
  7 F s       :     3.893428  s :     3.893428
      pz      :     1.877335  p :     5.458705
      px      :     1.725815
      py      :     1.855555
      dz2     :     0.002091  d :     0.011550
      dxz     :     0.002739
      dyz     :     0.001421
      dx2y2   :     0.002236
      dxy     :     0.003063
  8 H s       :     0.724357  s :     0.724357
  9 H s       :     0.724357  s :     0.724357
 10 H s       :     0.753448  s :     0.753448
 11 H s       :     0.724336  s :     0.724336
 12 H s       :     0.724337  s :     0.724337
 13 H s       :     0.753447  s :     0.753447
 14 H s       :     0.753447  s :     0.753447
 15 H s       :     0.724337  s :     0.724337
 16 H s       :     0.724336  s :     0.724336


                     *******************************
                     * LOEWDIN POPULATION ANALYSIS *
                     *******************************

----------------------
LOEWDIN ATOMIC CHARGES
----------------------
   0 B :    0.082245
   1 P :    0.690554
   2 C :   -0.506168
   3 C :   -0.506168
   4 C :   -0.506147
   5 F :   -0.218101
   6 F :   -0.218094
   7 F :   -0.218101
   8 H :    0.161503
   9 H :    0.161503
  10 H :    0.143647
  11 H :    0.161509
  12 H :    0.161508
  13 H :    0.143647
  14 H :    0.143647
  15 H :    0.161508
  16 H :    0.161509

-------------------------------
LOEWDIN REDUCED ORBITAL CHARGES
-------------------------------
  0 B s       :     2.633601  s :     2.633601
      pz      :     0.644554  p :     1.973226
      px      :     0.664337
      py      :     0.664335
      dz2     :     0.061496  d :     0.310927
      dxz     :     0.037271
      dyz     :     0.037271
      dx2y2   :     0.087445
      dxy     :     0.087444
  1 P s       :     5.127748  s :     5.127748
      pz      :     3.179369  p :     8.890977
      px      :     2.855804
      py      :     2.855804
      dz2     :     0.052556  d :     0.290721
      dxz     :     0.048294
      dyz     :     0.048295
      dx2y2   :     0.070788
      dxy     :     0.070789
  2 C s       :     3.005306  s :     3.005306
      pz      :     1.146997  p :     3.449553
      px      :     1.140970
      py      :     1.161585
      dz2     :     0.017014  d :     0.051309
      dxz     :     0.007121
      dyz     :     0.005877
      dx2y2   :     0.011176
      dxy     :     0.010121
  3 C s       :     3.005306  s :     3.005306
      pz      :     1.146997  p :     3.449553
      px      :     1.140970
      py      :     1.161585
      dz2     :     0.017014  d :     0.051309
      dxz     :     0.007121
      dyz     :     0.005877
      dx2y2   :     0.011176
      dxy     :     0.010121
  4 C s       :     3.005300  s :     3.005300
      pz      :     1.146994  p :     3.449537
      px      :     1.171887
      py      :     1.130656
      dz2     :     0.017014  d :     0.051309
      dxz     :     0.005255
      dyz     :     0.007743
      dx2y2   :     0.009594
      dxy     :     0.011704
  5 F s       :     3.716200  s :     3.716200
      pz      :     1.873861  p :     5.458870
      px      :     1.738336
      py      :     1.846673
      dz2     :     0.007707  d :     0.043031
      dxz     :     0.009203
      dyz     :     0.003881
      dx2y2   :     0.010706
      dxy     :     0.011534
  6 F s       :     3.716200  s :     3.716200
      pz      :     1.873854  p :     5.458863
      px      :     1.900838
      py      :     1.684171
      dz2     :     0.007707  d :     0.043031
      dxz     :     0.001220
      dyz     :     0.011864
      dx2y2   :     0.011948
      dxy     :     0.010292
  7 F s       :     3.716200  s :     3.716200
      pz      :     1.873861  p :     5.458870
      px      :     1.738336
      py      :     1.846673
      dz2     :     0.007707  d :     0.043031
      dxz     :     0.009203
      dyz     :     0.003881
      dx2y2   :     0.010706
      dxy     :     0.011534
  8 H s       :     0.838497  s :     0.838497
  9 H s       :     0.838497  s :     0.838497
 10 H s       :     0.856353  s :     0.856353
 11 H s       :     0.838491  s :     0.838491
 12 H s       :     0.838492  s :     0.838492
 13 H s       :     0.856353  s :     0.856353
 14 H s       :     0.856353  s :     0.856353
 15 H s       :     0.838492  s :     0.838492
 16 H s       :     0.838491  s :     0.838491


                      *****************************
                      * MAYER POPULATION ANALYSIS *
                      *****************************

  NA   - Mulliken gross atomic population
  ZA   - Total nuclear charge
  QA   - Mulliken gross atomic charge
  VA   - Mayer's total valence
  BVA  - Mayer's bonded valence
  FA   - Mayer's free valence

  ATOM       NA         ZA         QA         VA         BVA        FA
  0 B      4.1811     5.0000     0.8189     3.4485     3.4485    -0.0000
  1 P     14.5868    15.0000     0.4132     3.5574     3.5574     0.0000
  2 C      6.8449     6.0000    -0.8449     3.6860     3.6860    -0.0000
  3 C      6.8449     6.0000    -0.8449     3.6860     3.6860     0.0000
  4 C      6.8448     6.0000    -0.8448     3.6860     3.6860    -0.0000
  5 F      9.3637     9.0000    -0.3637     1.0589     1.0589     0.0000
  6 F      9.3637     9.0000    -0.3637     1.0589     1.0589     0.0000
  7 F      9.3637     9.0000    -0.3637     1.0589     1.0589     0.0000
  8 H      0.7244     1.0000     0.2756     0.8928     0.8928    -0.0000
  9 H      0.7244     1.0000     0.2756     0.8928     0.8928    -0.0000
 10 H      0.7534     1.0000     0.2466     0.9015     0.9015    -0.0000
 11 H      0.7243     1.0000     0.2757     0.8928     0.8928     0.0000
 12 H      0.7243     1.0000     0.2757     0.8928     0.8928    -0.0000
 13 H      0.7534     1.0000     0.2466     0.9015     0.9015     0.0000
 14 H      0.7534     1.0000     0.2466     0.9015     0.9015     0.0000
 15 H      0.7243     1.0000     0.2757     0.8928     0.8928    -0.0000
 16 H      0.7243     1.0000     0.2757     0.8928     0.8928     0.0000

  Mayer bond orders larger than 0.100000
B(  0-B ,  1-P ) :   0.4904 B(  0-B ,  5-F ) :   0.9823 B(  0-B ,  6-F ) :   0.9823 
B(  0-B ,  7-F ) :   0.9823 B(  1-P ,  2-C ) :   0.9865 B(  1-P ,  3-C ) :   0.9865 
B(  1-P ,  4-C ) :   0.9865 B(  2-C , 14-H ) :   0.9026 B(  2-C , 15-H ) :   0.8956 
B(  2-C , 16-H ) :   0.8956 B(  3-C , 11-H ) :   0.8956 B(  3-C , 12-H ) :   0.8956 
B(  3-C , 13-H ) :   0.9026 B(  4-C ,  8-H ) :   0.8956 B(  4-C ,  9-H ) :   0.8956 
B(  4-C , 10-H ) :   0.9026 

-------
TIMINGS
-------

Total SCF time: 0 days 0 hours 1 min 26 sec 

Total time                  ....      86.627 sec
Sum of individual times     ....      81.373 sec  ( 93.9%)

Fock matrix formation       ....      65.782 sec  ( 75.9%)
  Split-RI-J                ....       6.166 sec  (  9.4% of F)
  Chain of spheres X        ....      32.090 sec  ( 48.8% of F)
  XC integration            ....      16.272 sec  ( 24.7% of F)
    Basis function eval.    ....       3.741 sec  ( 23.0% of XC)
    Density eval.           ....       2.254 sec  ( 13.8% of XC)
    XC-Functional eval.     ....       1.574 sec  (  9.7% of XC)
    XC-Potential eval.      ....       1.274 sec  (  7.8% of XC)
Diagonalization             ....       0.589 sec  (  0.7%)
Density matrix formation    ....       0.041 sec  (  0.0%)
Population analysis         ....       0.376 sec  (  0.4%)
Initial guess               ....       0.148 sec  (  0.2%)
Orbital Transformation      ....       0.000 sec  (  0.0%)
Orbital Orthonormalization  ....       0.000 sec  (  0.0%)
DIIS solution               ....       3.079 sec  (  3.6%)
SOSCF solution              ....       1.343 sec  (  1.6%)
Grid generation             ....      10.016 sec  ( 11.6%)

Maximum memory used throughout the entire SCF-calculation: 56.0 MB


-------------------------------------------------------------------------------
                          DFT DISPERSION CORRECTION                            
                                                                               
                              DFTD3 V3.1  Rev 1                                
                          USING Becke-Johnson damping                          
-------------------------------------------------------------------------------
The PBEh-3c composite method is recognized
Using three-body term ABC
Active option DFTDOPT                   ...         4   

molecular C6(AA) [au] = 2868.619715 


            DFT-D V3
 parameters
 s6 scaling factor         :     1.0000 
 a1 scaling factor         :     0.4860 
 s8 scaling factor         :     0.0000 
 a2 scaling factor         :     4.5000 
 Damping factor alpha9(ATM):    16.0000 
 ad hoc parameters k1-k3   :    16.0000     1.3333    -4.0000 

 Edisp/kcal,au: -5.258695112291  -0.008380263197 
 E6   /kcal   :  -5.312940490 
 E8   /kcal   :  -0.000000000 
 E6(ABC)      :   0.054245377 
 % E8         :   0.000000000 
 % E6(ABC)    :  -1.031536841 

-------------------------   ----------------
Dispersion correction           -0.008380263
-------------------------   ----------------

------------------   -----------------
gCP correction             0.026599145
------------------   -----------------

-------------------------   --------------------
FINAL SINGLE POINT ENERGY      -784.405589995884
-------------------------   --------------------


                            ***************************************
                            *     ORCA property calculations      *
                            ***************************************

                                    ---------------------
                                    Active property flags
                                    ---------------------
   (+) Dipole Moment


------------------------------------------------------------------------------
                       ORCA ELECTRIC PROPERTIES CALCULATION
------------------------------------------------------------------------------

Dipole Moment Calculation                       ... on
Quadrupole Moment Calculation                   ... off
Polarizability Calculation                      ... off
GBWName                                         ... pbeh-3c.gbw
Electron density                                ... pbeh-3c.scfp
The origin for moment calculation is the CENTER OF MASS  = ( 0.000000, -0.000000 -0.255779)

-------------
DIPOLE MOMENT
-------------
                                X             Y             Z
Electronic contribution:      0.00000       0.00001     -16.17890
Nuclear contribution   :      0.00000       0.00000      18.92767
                        -----------------------------------------
Total Dipole Moment    :      0.00000       0.00002       2.74877
                        -----------------------------------------
Magnitude (a.u.)       :      2.74877
Magnitude (Debye)      :      6.98681



--------------------
Rotational spectrum 
--------------------
 
Rotational constants in cm-1:     0.067870     0.039882     0.039882 
Rotational constants in MHz :  2034.701064  1195.641689  1195.641658 

 Dipole components along the rotational axes: 
x,y,z [a.u.] :    -2.748768     0.000000     0.000015 
x,y,z [Debye]:    -6.986813     0.000000     0.000039 

 

Timings for individual modules:

Sum of individual times         ...       90.236 sec (=   1.504 min)
GTO integral calculation        ...        2.981 sec (=   0.050 min)   3.3 %
SCF iterations                  ...       87.255 sec (=   1.454 min)  96.7 %
                             ****ORCA TERMINATED NORMALLY****
TOTAL RUN TIME: 0 days 0 hours 1 minutes 32 seconds 90 msec
