
                                 *****************
                                 * O   R   C   A *
                                 *****************

                                            #,                                       
                                            ###                                      
                                            ####                                     
                                            #####                                    
                                            ######                                   
                                           ########,                                 
                                     ,,################,,,,,                         
                               ,,#################################,,                 
                          ,,##########################################,,             
                       ,#########################################, ''#####,          
                    ,#############################################,,   '####,        
                  ,##################################################,,,,####,       
                ,###########''''           ''''###############################       
              ,#####''   ,,,,##########,,,,          '''####'''          '####       
            ,##' ,,,,###########################,,,                        '##       
           ' ,,###''''                  '''############,,,                           
         ,,##''                                '''############,,,,        ,,,,,,###''
      ,#''                                            '''#######################'''  
     '                                                          ''''####''''         
             ,#######,   #######,   ,#######,      ##                                
            ,#'     '#,  ##    ##  ,#'     '#,    #''#        ######   ,####,        
            ##       ##  ##   ,#'  ##            #'  '#       #        #'  '#        
            ##       ##  #######   ##           ,######,      #####,   #    #        
            '#,     ,#'  ##    ##  '#,     ,#' ,#      #,         ##   #,  ,#        
             '#######'   ##     ##  '#######'  #'      '#     #####' # '####'        



                  #######################################################
                  #                        -***-                        #
                  #          Department of theory and spectroscopy      #
                  #    Directorship and core code : Frank Neese         #
                  #        Max Planck Institute fuer Kohlenforschung    #
                  #                Kaiser Wilhelm Platz 1               #
                  #                 D-45470 Muelheim/Ruhr               #
                  #                      Germany                        #
                  #                                                     #
                  #                  All rights reserved                #
                  #                        -***-                        #
                  #######################################################


                         Program Version 5.0.3 -  RELEASE  -


 With contributions from (in alphabetic order):
   Daniel Aravena         : Magnetic Suceptibility
   Michael Atanasov       : Ab Initio Ligand Field Theory (pilot matlab implementation)
   Alexander A. Auer      : GIAO ZORA, VPT2 properties, NMR spectrum
   Ute Becker             : Parallelization
   Giovanni Bistoni       : ED, misc. LED, open-shell LED, HFLD
   Martin Brehm           : Molecular dynamics
   Dmytro Bykov           : SCF Hessian
   Vijay G. Chilkuri      : MRCI spin determinant printing, contributions to CSF-ICE
   Dipayan Datta          : RHF DLPNO-CCSD density
   Achintya Kumar Dutta   : EOM-CC, STEOM-CC
   Dmitry Ganyushin       : Spin-Orbit,Spin-Spin,Magnetic field MRCI
   Miquel Garcia          : C-PCM and meta-GGA Hessian, CC/C-PCM, Gaussian charge scheme
   Yang Guo               : DLPNO-NEVPT2, F12-NEVPT2, CIM, IAO-localization
   Andreas Hansen         : Spin unrestricted coupled pair/coupled cluster methods
   Benjamin Helmich-Paris : MC-RPA, TRAH-SCF, COSX integrals
   Lee Huntington         : MR-EOM, pCC
   Robert Izsak           : Overlap fitted RIJCOSX, COSX-SCS-MP3, EOM
   Marcus Kettner         : VPT2
   Christian Kollmar      : KDIIS, OOCD, Brueckner-CCSD(T), CCSD density, CASPT2, CASPT2-K
   Simone Kossmann        : Meta GGA functionals, TD-DFT gradient, OOMP2, MP2 Hessian
   Martin Krupicka        : Initial AUTO-CI
   Lucas Lang             : DCDCAS
   Marvin Lechner         : AUTO-CI (C++ implementation), FIC-MRCC
   Dagmar Lenk            : GEPOL surface, SMD
   Dimitrios Liakos       : Extrapolation schemes; Compound Job, initial MDCI parallelization
   Dimitrios Manganas     : Further ROCIS development; embedding schemes
   Dimitrios Pantazis     : SARC Basis sets
   Anastasios Papadopoulos: AUTO-CI, single reference methods and gradients
   Taras Petrenko         : DFT Hessian,TD-DFT gradient, ASA, ECA, R-Raman, ABS, FL, XAS/XES, NRVS
   Peter Pinski           : DLPNO-MP2, DLPNO-MP2 Gradient
   Christoph Reimann      : Effective Core Potentials
   Marius Retegan         : Local ZFS, SOC
   Christoph Riplinger    : Optimizer, TS searches, QM/MM, DLPNO-CCSD(T), (RO)-DLPNO pert. Triples
   Tobias Risthaus        : Range-separated hybrids, TD-DFT gradient, RPA, STAB
   Michael Roemelt        : Original ROCIS implementation
   Masaaki Saitow         : Open-shell DLPNO-CCSD energy and density
   Barbara Sandhoefer     : DKH picture change effects
   Avijit Sen             : IP-ROCIS
   Kantharuban Sivalingam : CASSCF convergence, NEVPT2, FIC-MRCI
   Bernardo de Souza      : ESD, SOC TD-DFT
   Georgi Stoychev        : AutoAux, RI-MP2 NMR, DLPNO-MP2 response
   Willem Van den Heuvel  : Paramagnetic NMR
   Boris Wezisla          : Elementary symmetry handling
   Frank Wennmohs         : Technical directorship


 We gratefully acknowledge several colleagues who have allowed us to
 interface, adapt or use parts of their codes:
   Stefan Grimme, W. Hujo, H. Kruse, P. Pracht,  : VdW corrections, initial TS optimization,
                  C. Bannwarth, S. Ehlert          DFT functionals, gCP, sTDA/sTD-DF
   Ed Valeev, F. Pavosevic, A. Kumar             : LibInt (2-el integral package), F12 methods
   Garnet Chan, S. Sharma, J. Yang, R. Olivares  : DMRG
   Ulf Ekstrom                                   : XCFun DFT Library
   Mihaly Kallay                                 : mrcc  (arbitrary order and MRCC methods)
   Jiri Pittner, Ondrej Demel                    : Mk-CCSD
   Frank Weinhold                                : gennbo (NPA and NBO analysis)
   Christopher J. Cramer and Donald G. Truhlar   : smd solvation model
   Lars Goerigk                                  : TD-DFT with DH, B97 family of functionals
   V. Asgeirsson, H. Jonsson                     : NEB implementation
   FAccTs GmbH                                   : IRC, NEB, NEB-TS, DLPNO-Multilevel, CI-OPT
                                                   MM, QMMM, 2- and 3-layer-ONIOM, Crystal-QMMM,
                                                   LR-CPCM, SF, NACMEs, symmetry and pop. for TD-DFT,
                                                   nearIR, NL-DFT gradient (VV10), updates on ESD,
                                                   ML-optimized integration grids
   S Lehtola, MJT Oliveira, MAL Marques          : LibXC Library
   Liviu Ungur et al                             : ANISO software


 Your calculation uses the libint2 library for the computation of 2-el integrals
 For citations please refer to: http://libint.valeyev.net

 Your ORCA version has been built with support for libXC version: 5.1.0
 For citations please refer to: https://tddft.org/programs/libxc/

 This ORCA versions uses:
   CBLAS   interface :  Fast vector & matrix operations
   LAPACKE interface :  Fast linear algebra routines
   SCALAPACK package :  Parallel linear algebra routines
   Shared memory     :  Shared parallel matrices
   BLAS/LAPACK       :  OpenBLAS 0.3.15  USE64BITINT DYNAMIC_ARCH NO_AFFINITY Haswell SINGLE_THREADED
        Core in use  :  Haswell
   Copyright (c) 2011-2014, The OpenBLAS Project




***************************************
The coordinates will be read from file: PMe3_TS.xyz
***************************************


Your calculation utilizes the geometrical counterpoise correction gCP
Please cite in your paper:
H.Kruse, S. Grimme J.Chem.Phys., 136, (2012), 154101 
   

Your calculation utilizes the atom-pairwise dispersion correction
with the Becke-Johnson damping scheme (D3BJ)
Cite in your paper:
S.Grimme, S.Ehrlich, L.Goerigk, J Comput Chem, (2011), 32, 1456–1465 
S.Grimme, J.Antony, S.Ehrlich and H.Krieg, J.Chem.Phys., 132, (2010), 154104 
   

Your calculation employs the composite approach PBEh-3c.
Please cite in your paper:
S. Grimme, J. G. Brandenburg, C. Bannwarth, A. Hansen J.Chem.Phys., 143, (2015), 054107 
   

================================================================================

----- Orbital basis set information -----
Your calculation utilizes the basis: def2-mSVP

----- AuxJ basis set information -----
Your calculation utilizes the auxiliary basis: def2/J
   F. Weigend, Phys. Chem. Chem. Phys. 8, 1057 (2006).

================================================================================
                                        WARNINGS
                       Please study these warnings very carefully!
================================================================================


INFO   : the flag for use of the SHARK integral package has been found!

================================================================================
                                       INPUT FILE
================================================================================
NAME = pbeh-3c.inp
|  1> ! PBEh-3c def2/J TightSCF DefGrid3
|  2> 
|  3> %maxcore 60000
|  4> 
|  5> %pal
|  6> nprocs 4
|  7> end
|  8> 
|  9> *xyzfile 0 1 PMe3_TS.xyz
| 10> 
| 11>                          ****END OF INPUT****
================================================================================

                       ****************************
                       * Single Point Calculation *
                       ****************************

---------------------------------
CARTESIAN COORDINATES (ANGSTROEM)
---------------------------------
  P      0.009203    0.065735   -0.019415
  C      0.030845    0.168661    1.803194
  C      1.563949   -0.289682   -0.913220
  C     -1.579095    0.189211   -0.918164
  H      1.399162   -1.038917   -1.687683
  H      2.034637    0.585193   -1.363451
  H      2.254809   -0.722249   -0.187844
  H     -1.801537    1.180971   -1.315323
  H     -1.595020   -0.527491   -1.739604
  H     -2.373675   -0.096233   -0.226798
  H     -0.964331   -0.097102    2.164065
  H      0.725100   -0.568536    2.206068
  H      0.295954    1.150439    2.198174

----------------------------
CARTESIAN COORDINATES (A.U.)
----------------------------
  NO LB      ZA    FRAG     MASS         X           Y           Z
   0 P    15.0000    0    30.974    0.017391    0.124221   -0.036690
   1 C     6.0000    0    12.011    0.058289    0.318723    3.407542
   2 C     6.0000    0    12.011    2.955436   -0.547419   -1.725736
   3 C     6.0000    0    12.011   -2.984058    0.357558   -1.735078
   4 H     1.0000    0     1.008    2.644033   -1.963268   -3.189258
   5 H     1.0000    0     1.008    3.844907    1.105855   -2.576549
   6 H     1.0000    0     1.008    4.260972   -1.364852   -0.354974
   7 H     1.0000    0     1.008   -3.404411    2.231712   -2.485601
   8 H     1.0000    0     1.008   -3.014151   -0.996814   -3.287375
   9 H     1.0000    0     1.008   -4.485596   -0.181854   -0.428586
  10 H     1.0000    0     1.008   -1.822322   -0.183497    4.089490
  11 H     1.0000    0     1.008    1.370241   -1.074378    4.168863
  12 H     1.0000    0     1.008    0.559271    2.174015    4.153948

--------------------------------
INTERNAL COORDINATES (ANGSTROEM)
--------------------------------
 P      0   0   0     0.000000000000     0.00000000     0.00000000
 C      1   0   0     1.825641387511     0.00000000     0.00000000
 C      1   2   0     1.828235584465   119.27198975     0.00000000
 C      1   2   3     1.829121465227   119.80350968   175.28638995
 H      3   1   2     1.090091578165   110.63395661   135.02624873
 H      3   1   2     1.090715710692   114.38446662   258.38988611
 H      3   1   2     1.091133517341   106.88805116    18.64435353
 H      4   1   2     1.091239310074   114.65711923    97.81069416
 H      4   1   2     1.090265978686   109.78607257   220.46877417
 H      4   1   2     1.091248097169   107.65670861   336.77978937
 H      2   1   3     1.091437109131   107.79140231   206.96183342
 H      2   1   3     1.089842712098   109.78335565   323.28639724
 H      2   1   3     1.090953955838   114.52349660    85.83415627

---------------------------
INTERNAL COORDINATES (A.U.)
---------------------------
 P      0   0   0     0.000000000000     0.00000000     0.00000000
 C      1   0   0     3.449962241147     0.00000000     0.00000000
 C      1   2   0     3.454864562928   119.27198975     0.00000000
 C      1   2   3     3.456538634956   119.80350968   175.28638995
 H      3   1   2     2.059974543626   110.63395661   135.02624873
 H      3   1   2     2.061153983173   114.38446662   258.38988611
 H      3   1   2     2.061943523316   106.88805116    18.64435353
 H      4   1   2     2.062143442609   114.65711923    97.81069416
 H      4   1   2     2.060304112848   109.78607257   220.46877417
 H      4   1   2     2.062160047812   107.65670861   336.77978937
 H      2   1   3     2.062517228656   107.79140231   206.96183342
 H      2   1   3     2.059504254916   109.78335565   323.28639724
 H      2   1   3     2.061604201252   114.52349660    85.83415627

---------------------
BASIS SET INFORMATION
---------------------
There are 3 groups of distinct atoms

 Group   1 Type P   : 10s7p1d contracted to 4s3p1d pattern {5311/511/1}
 Group   2 Type C   : 8s4p1d contracted to 4s2p1d pattern {5111/31/1}
 Group   3 Type H   : 4s contracted to 2s pattern {31}

Atom   0P    basis set group =>   1
Atom   1C    basis set group =>   2
Atom   2C    basis set group =>   2
Atom   3C    basis set group =>   2
Atom   4H    basis set group =>   3
Atom   5H    basis set group =>   3
Atom   6H    basis set group =>   3
Atom   7H    basis set group =>   3
Atom   8H    basis set group =>   3
Atom   9H    basis set group =>   3
Atom  10H    basis set group =>   3
Atom  11H    basis set group =>   3
Atom  12H    basis set group =>   3
---------------------------------
AUXILIARY/J BASIS SET INFORMATION
---------------------------------
There are 3 groups of distinct atoms

 Group   1 Type P   : 14s5p5d2f1g contracted to 8s4p3d1f1g pattern {71111111/2111/311/2/1}
 Group   2 Type C   : 12s5p4d2f1g contracted to 6s4p3d1f1g pattern {711111/2111/211/2/1}
 Group   3 Type H   : 5s2p1d contracted to 3s1p1d pattern {311/2/1}

Atom   0P    basis set group =>   1
Atom   1C    basis set group =>   2
Atom   2C    basis set group =>   2
Atom   3C    basis set group =>   2
Atom   4H    basis set group =>   3
Atom   5H    basis set group =>   3
Atom   6H    basis set group =>   3
Atom   7H    basis set group =>   3
Atom   8H    basis set group =>   3
Atom   9H    basis set group =>   3
Atom  10H    basis set group =>   3
Atom  11H    basis set group =>   3
Atom  12H    basis set group =>   3


           ************************************************************
           *        Program running with 4 parallel MPI-processes     *
           *              working on a common directory               *
           ************************************************************
------------------------------------------------------------------------------
                           ORCA GTO INTEGRAL CALCULATION
                           -- RI-GTO INTEGRALS CHOSEN --
------------------------------------------------------------------------------
------------------------------------------------------------------------------
                   ___                                                        
                  /   \      - P O W E R E D   B Y -                         
                 /     \                                                     
                 |  |  |   _    _      __       _____    __    __             
                 |  |  |  | |  | |    /  \     |  _  \  |  |  /  |          
                  \  \/   | |  | |   /    \    | | | |  |  | /  /          
                 / \  \   | |__| |  /  /\  \   | |_| |  |  |/  /          
                |  |  |   |  __  | /  /__\  \  |    /   |      \           
                |  |  |   | |  | | |   __   |  |    \   |  |\   \          
                \     /   | |  | | |  |  |  |  | |\  \  |  | \   \       
                 \___/    |_|  |_| |__|  |__|  |_| \__\ |__|  \__/        
                                                                              
                      - O R C A' S   B I G   F R I E N D -                    
                                      &                                       
                       - I N T E G R A L  F E E D E R -                       
                                                                              
 v1 FN, 2020, v2 2021                                                         
------------------------------------------------------------------------------


Reading SHARK input file pbeh-3c.SHARKINP.tmp ... ok
----------------------
SHARK INTEGRAL PACKAGE
----------------------

Number of atoms                             ...     13
Number of basis functions                   ...     81
Number of shells                            ...     47
Maximum angular momentum                    ...      2
Integral batch strategy                     ... SHARK/LIBINT Hybrid
RI-J (if used) integral strategy            ... SPLIT-RIJ (Revised 2003 algorithm where possible)
Printlevel                                  ...      1
Contraction scheme used                     ... SEGMENTED contraction
Coulomb Range Separation                    ... NOT USED
Exchange Range Separation                   ... NOT USED
Finite Nucleus Model                        ... NOT USED
Auxiliary Coulomb fitting basis             ... AVAILABLE
   # of basis functions in Aux-J            ...    297
   # of shells in Aux-J                     ...    107
   Maximum angular momentum in Aux-J        ...      4
Auxiliary J/K fitting basis                 ... NOT available
Auxiliary Correlation fitting basis         ... NOT available
Auxiliary 'external' fitting basis          ... NOT available
Integral threshold                          ...     2.500000e-11
Primitive cut-off                           ...     2.500000e-12
Primitive pair pre-selection threshold      ...     2.500000e-12

Calculating pre-screening integrals         ... done (  0.1 sec) Dimension = 47
Organizing shell pair data                  ... done (  0.2 sec)
Shell pair information
Total number of shell pairs                 ...      1128
Shell pairs after pre-screening             ...      1088
Total number of primitive shell pairs       ...      4460
Primitive shell pairs kept                  ...      3146
          la=0 lb=0:    555 shell pairs
          la=1 lb=0:    306 shell pairs
          la=1 lb=1:     45 shell pairs
          la=2 lb=0:    136 shell pairs
          la=2 lb=1:     36 shell pairs
          la=2 lb=2:     10 shell pairs

Calculating one electron integrals          ... done (  0.0 sec)
Calculating RI/J V-Matrix + Cholesky decomp.... done (  0.1 sec)
Calculating Nuclear repulsion               ... done (  0.0 sec) ENN=    173.910370068497 Eh

SHARK setup successfully completed in   1.8 seconds

Maximum memory used throughout the entire GTOINT-calculation: 9.8 MB


           ************************************************************
           *        Program running with 4 parallel MPI-processes     *
           *              working on a common directory               *
           ************************************************************
-------------------------------------------------------------------------------
                                 ORCA SCF
-------------------------------------------------------------------------------

------------
SCF SETTINGS
------------
Hamiltonian:
 Density Functional     Method          .... DFT(GTOs)
 Exchange Functional    Exchange        .... PBE
   PBE kappa parameter   XKappa         ....  1.024500
   PBE mue parameter    XMuePBE         ....  0.123457
 Correlation Functional Correlation     .... PBE
   PBE beta parameter  CBetaPBE         ....  0.030000
 LDA part of GGA corr.  LDAOpt          .... PW91-LDA
 Gradients option       PostSCFGGA      .... off
 Hybrid DFT is turned on
   Fraction HF Exchange ScalHFX         ....  0.420000
   Scaling of DF-GGA-X  ScalDFX         ....  0.580000
   Scaling of DF-GGA-C  ScalDFC         ....  1.000000
   Scaling of DF-LDA-C  ScalLDAC        ....  1.000000
   Perturbative correction              ....  0.000000
   Density functional embedding theory  .... OFF
 RI-approximation to the Coulomb term is turned on
   Number of AuxJ basis functions       .... 297
   RIJ-ON(X) (HFX calculated with O(N)) .... on
   Number of AuxJ basis functions       .... 297
   RIJ-COSX (HFX calculated with COS-X)).... on


General Settings:
 Integral files         IntName         .... pbeh-3c
 Hartree-Fock type      HFTyp           .... RHF
 Total Charge           Charge          ....    0
 Multiplicity           Mult            ....    1
 Number of Electrons    NEL             ....   42
 Basis Dimension        Dim             ....   81
 Nuclear Repulsion      ENuc            ....    173.9103700685 Eh

Convergence Acceleration:
 DIIS                   CNVDIIS         .... on
   Start iteration      DIISMaxIt       ....    12
   Startup error        DIISStart       ....  0.200000
   # of expansion vecs  DIISMaxEq       ....     5
   Bias factor          DIISBfac        ....   1.050
   Max. coefficient     DIISMaxC        ....  10.000
 Trust-Rad. Augm. Hess. CNVTRAH         .... auto
   Auto Start mean grad. ratio tolernc. ....  1.125000
   Auto Start start iteration           ....    20
   Auto Start num. interpolation iter.  ....    10
   Max. Number of Micro iterations      ....    16
   Max. Number of Macro iterations      .... Maxiter - #DIIS iter
   Number of Davidson start vectors     ....     2
   Converg. threshold I  (grad. norm)   ....   1.000e-05
   Converg. threshold II (energy diff.) ....   1.000e-08
   Grad. Scal. Fac. for Micro threshold ....   0.100
   Minimum threshold for Micro iter.    ....   0.010
   NR start threshold (gradient norm)   ....   0.001
   Initial trust radius                 ....   0.400
   Minimum AH scaling param. (alpha)    ....   1.000
   Maximum AH scaling param. (alpha)    .... 1000.000
   Orbital update algorithm             .... Taylor
   White noise on init. David. guess    .... on
   Maximum white noise                  ....   0.010
   Quad. conv. algorithm                .... NR
   COSX micro iterations for RIJONX calc.... off
 SOSCF                  CNVSOSCF        .... on
   Start iteration      SOSCFMaxIt      ....   150
   Startup grad/error   SOSCFStart      ....  0.003300
 Level Shifting         CNVShift        .... on
   Level shift para.    LevelShift      ....    0.2500
   Turn off err/grad.   ShiftErr        ....    0.0010
 Zerner damping         CNVZerner       .... off
 Static damping         CNVDamp         .... on
   Fraction old density DampFac         ....    0.7000
   Max. Damping (<1)    DampMax         ....    0.9800
   Min. Damping (>=0)   DampMin         ....    0.0000
   Turn off err/grad.   DampErr         ....    0.1000
 Fernandez-Rico         CNVRico         .... off

SCF Procedure:
 Maximum # iterations   MaxIter         ....   125
 SCF integral mode      SCFMode         .... Direct
   Integral package                     .... SHARK and LIBINT hybrid scheme
 Reset frequency        DirectResetFreq ....    20
 Integral Threshold     Thresh          ....  2.500e-11 Eh
 Primitive CutOff       TCut            ....  2.500e-12 Eh

Convergence Tolerance:
 Convergence Check Mode ConvCheckMode   .... Total+1el-Energy
 Convergence forced     ConvForced      .... 0
 Energy Change          TolE            ....  1.000e-08 Eh
 1-El. energy change                    ....  1.000e-05 Eh
 Orbital Gradient       TolG            ....  1.000e-05
 Orbital Rotation angle TolX            ....  1.000e-05
 DIIS Error             TolErr          ....  5.000e-07


Diagonalization of the overlap matrix:
Smallest eigenvalue                        ... 1.307e-02
Time for diagonalization                   ...    0.002 sec
Threshold for overlap eigenvalues          ... 1.000e-08
Number of eigenvalues below threshold      ... 0
Time for construction of square roots      ...    0.381 sec
Total time needed                          ...    0.384 sec

--------------------------------
INITIAL GUESS: MINIMAL BASIS EHT
--------------------------------
The minimal basis has 33 functions
EHT matrix was diagonalized
Basis set overlap was calculated now projecting the orbitals
Using GuessMode=FMatrix for the initial guess
C*T matrix was formed
Effective Fockian was calculated
Effective Fockian was diagonalized
Initial density was built
                      ------------------
                      INITIAL GUESS DONE
                      ------------------
-------------------
DFT GRID GENERATION
-------------------

General Integration Accuracy     IntAcc      ... 4.959
Radial Grid Type                 RadialGrid  ... OptM3 with GC (2021)
Angular Grid (max. ang.)         AngularGrid ... 6 (Lebedev-590)
Angular grid pruning method      GridPruning ... 4 (adaptive)
Weight generation scheme         WeightScheme... Becke
Basis function cutoff            BFCut       ... 1.0000e-11
Integration weight cutoff        WCut        ... 1.0000e-14
Angular grids for H and He will be reduced by one unit
Partially contracted basis set               ... off
Rotationally invariant grid construction     ... off

Total number of grid points                  ...   138795
Total number of batches                      ...     2175
Average number of points per batch           ...       63
Average number of grid points per atom       ...    10677
Time for grid setup =    3.335 sec

--------------------
COSX GRID GENERATION
--------------------

GRIDX 1
-------
General Integration Accuracy     IntAcc      ... 4.020
Radial Grid Type                 RadialGrid  ... OptM3 with GC (2021)
Angular Grid (max. ang.)         AngularGrid ... 2 (Lebedev-110)
Angular grid pruning method      GridPruning ... 4 (adaptive)
Weight generation scheme         WeightScheme... Becke
Basis function cutoff            BFCut       ... 1.0000e-11
Integration weight cutoff        WCut        ... 1.0000e-14
Angular grids for H and He will be reduced by one unit
Partially contracted basis set               ... on
Rotationally invariant grid construction     ... off

Total number of grid points                  ...    14410
Total number of batches                      ...      231
Average number of points per batch           ...       62
Average number of grid points per atom       ...     1108
UseSFitting                                  ... on

GRIDX 2
-------
General Integration Accuracy     IntAcc      ... 4.338
Radial Grid Type                 RadialGrid  ... OptM3 with GC (2021)
Angular Grid (max. ang.)         AngularGrid ... 3 (Lebedev-194)
Angular grid pruning method      GridPruning ... 4 (adaptive)
Weight generation scheme         WeightScheme... Becke
Basis function cutoff            BFCut       ... 1.0000e-11
Integration weight cutoff        WCut        ... 1.0000e-14
Angular grids for H and He will be reduced by one unit
Partially contracted basis set               ... on
Rotationally invariant grid construction     ... off

Total number of grid points                  ...    32075
Total number of batches                      ...      507
Average number of points per batch           ...       63
Average number of grid points per atom       ...     2467
UseSFitting                                  ... on

GRIDX 3
-------
General Integration Accuracy     IntAcc      ... 4.871
Radial Grid Type                 RadialGrid  ... OptM3 with GC (2021)
Angular Grid (max. ang.)         AngularGrid ... 4 (Lebedev-302)
Angular grid pruning method      GridPruning ... 4 (adaptive)
Weight generation scheme         WeightScheme... Becke
Basis function cutoff            BFCut       ... 1.0000e-11
Integration weight cutoff        WCut        ... 1.0000e-14
Angular grids for H and He will be reduced by one unit
Partially contracted basis set               ... on
Rotationally invariant grid construction     ... off

Total number of grid points                  ...    64263
Total number of batches                      ...     1009
Average number of points per batch           ...       63
Average number of grid points per atom       ...     4943
UseSFitting                                  ... on

Time for X-Grid setup             =    2.928 sec

--------------
SCF ITERATIONS
--------------
ITER       Energy         Delta-E        Max-DP      RMS-DP      [F,P]     Damp
               ***  Starting incremental Fock matrix formation  ***
  0   -459.8820940367   0.000000000000 0.23879458  0.00545039  0.3789395 0.7000
  1   -460.0287813113  -0.146687274650 0.16459958  0.00378099  0.2659200 0.7000
                               ***Turning on DIIS***
  2   -460.1310214125  -0.102240101168 0.11307337  0.00261875  0.1873068 0.7000
  3   -460.2028894558  -0.071868043335 0.07842182  0.00186522  0.1317954 0.7000
  4   -460.2536360515  -0.050746595720 0.19145697  0.00461091  0.0922007 0.0000
  5   -460.3742815645  -0.120645512968 0.00866982  0.00028776  0.0052122 0.0000
                      *** Initiating the SOSCF procedure ***
                           *** Shutting down DIIS ***
                      *** Re-Reading the Fockian *** 
                      *** Removing any level shift *** 
ITER      Energy       Delta-E        Grad      Rot      Max-DP    RMS-DP
  6   -460.37435797  -0.0000764090  0.000828  0.000828  0.003539  0.000110
               *** Restarting incremental Fock matrix formation ***
  7   -460.37436253  -0.0000045569  0.000285  0.000713  0.001592  0.000086
  8   -460.37436487  -0.0000023410  0.000062  0.000251  0.000442  0.000026
  9   -460.37436498  -0.0000001067  0.000026  0.000019  0.000058  0.000003
 10   -460.37436500  -0.0000000203  0.000009  0.000015  0.000036  0.000002
                  ***Gradient check signals convergence***
              ***Rediagonalizing the Fockian in SOSCF/NRSCF***

               *****************************************************
               *                     SUCCESS                       *
               *           SCF CONVERGED AFTER  11 CYCLES          *
               *****************************************************

Old exchange energy                            =    -17.368557848 Eh
New exchange energy                            =    -17.368560045 Eh
Exchange energy change after final integration =     -0.000002197 Eh
Total energy after final integration           =   -460.374367198 Eh
Final COS-X integration done in                =     2.271 sec

----------------
TOTAL SCF ENERGY
----------------

Total Energy       :         -460.37436720 Eh          -12527.42341 eV

Components:
Nuclear Repulsion  :          173.91037007 Eh            4732.34176 eV
Electronic Energy  :         -634.28473727 Eh          -17259.76517 eV
One Electron Energy:         -976.74259287 Eh          -26578.51718 eV
Two Electron Energy:          342.45785560 Eh            9318.75201 eV
Max COSX asymmetry :            0.00000176 Eh               0.00005 eV

Virial components:
Potential Energy   :         -919.15771496 Eh          -25011.55299 eV
Kinetic Energy     :          458.78334776 Eh           12484.12957 eV
Virial Ratio       :            2.00346791


DFT components:
N(Alpha)           :       21.000000950430 electrons
N(Beta)            :       21.000000950430 electrons
N(Total)           :       42.000001900860 electrons
E(X)               :      -23.095136322483 Eh       
E(C)               :       -1.883376581356 Eh       
E(XC)              :      -24.978512903839 Eh       
DFET-embed. en.    :        0.000000000000 Eh       

---------------
SCF CONVERGENCE
---------------

  Last Energy change         ...   -2.6384e-09  Tolerance :   1.0000e-08
  Last MAX-Density change    ...    3.1086e-15  Tolerance :   1.0000e-07
  Last RMS-Density change    ...    7.6735e-17  Tolerance :   5.0000e-09
  Last Orbital Gradient      ...    8.6368e-07  Tolerance :   1.0000e-05
  Last Orbital Rotation      ...    3.1797e-06  Tolerance :   1.0000e-05

             **** THE GBW FILE WAS UPDATED (pbeh-3c.gbw) ****
             **** DENSITY pbeh-3c.scfp WAS UPDATED ****
             **** ENERGY FILE WAS UPDATED (pbeh-3c.en.tmp) ****
             **** THE GBW FILE WAS UPDATED (pbeh-3c.gbw) ****
             **** DENSITY pbeh-3c.scfp WAS UPDATED ****
----------------
ORBITAL ENERGIES
----------------

  NO   OCC          E(Eh)            E(eV) 
   0   2.0000     -77.700245     -2114.3312 
   1   2.0000     -10.443349      -284.1780 
   2   2.0000     -10.443199      -284.1739 
   3   2.0000     -10.442595      -284.1574 
   4   2.0000      -6.775919      -184.3821 
   5   2.0000      -4.867936      -132.4633 
   6   2.0000      -4.867807      -132.4598 
   7   2.0000      -4.865801      -132.4052 
   8   2.0000      -0.832491       -22.6532 
   9   2.0000      -0.777881       -21.1672 
  10   2.0000      -0.777140       -21.1470 
  11   2.0000      -0.583061       -15.8659 
  12   2.0000      -0.483359       -13.1529 
  13   2.0000      -0.479149       -13.0383 
  14   2.0000      -0.477362       -12.9897 
  15   2.0000      -0.455883       -12.4052 
  16   2.0000      -0.455186       -12.3862 
  17   2.0000      -0.445705       -12.1282 
  18   2.0000      -0.394312       -10.7298 
  19   2.0000      -0.391297       -10.6477 
  20   2.0000      -0.178575        -4.8593 
  21   0.0000       0.068690         1.8691 
  22   0.0000       0.127363         3.4657 
  23   0.0000       0.130654         3.5553 
  24   0.0000       0.148578         4.0430 
  25   0.0000       0.184645         5.0244 
  26   0.0000       0.191164         5.2018 
  27   0.0000       0.209364         5.6971 
  28   0.0000       0.215745         5.8707 
  29   0.0000       0.232466         6.3257 
  30   0.0000       0.242866         6.6087 
  31   0.0000       0.274530         7.4703 
  32   0.0000       0.280600         7.6355 
  33   0.0000       0.389818        10.6075 
  34   0.0000       0.444709        12.1011 
  35   0.0000       0.445016        12.1095 
  36   0.0000       0.508349        13.8329 
  37   0.0000       0.510114        13.8809 
  38   0.0000       0.536472        14.5981 
  39   0.0000       0.558744        15.2042 
  40   0.0000       0.574520        15.6335 
  41   0.0000       0.590250        16.0615 
  42   0.0000       0.650548        17.7023 
  43   0.0000       0.733532        19.9604 
  44   0.0000       0.753538        20.5048 
  45   0.0000       0.760240        20.6872 
  46   0.0000       0.768735        20.9183 
  47   0.0000       0.772119        21.0104 
  48   0.0000       0.869530        23.6611 
  49   0.0000       0.952845        25.9282 
  50   0.0000       0.961229        26.1564 
  51   0.0000       1.010792        27.5050 
  52   0.0000       1.013805        27.5870 
  53   0.0000       1.019811        27.7505 
  54   0.0000       1.045320        28.4446 
  55   0.0000       1.050634        28.5892 
  56   0.0000       1.055053        28.7094 
  57   0.0000       1.064750        28.9733 
  58   0.0000       1.127298        30.6753 
  59   0.0000       1.132784        30.8246 
  60   0.0000       1.287879        35.0450 
  61   0.0000       1.296117        35.2691 
  62   0.0000       1.303539        35.4711 
  63   0.0000       1.707245        46.4565 
  64   0.0000       1.790198        48.7138 
  65   0.0000       1.794862        48.8407 
  66   0.0000       1.806573        49.1594 
  67   0.0000       1.922257        52.3073 
  68   0.0000       1.933517        52.6137 
  69   0.0000       2.140067        58.2342 
  70   0.0000       2.253196        61.3126 
  71   0.0000       2.258646        61.4609 
  72   0.0000       2.294975        62.4494 
  73   0.0000       2.296349        62.4868 
  74   0.0000       2.312153        62.9169 
  75   0.0000       2.344911        63.8083 
  76   0.0000       2.351503        63.9877 
  77   0.0000       2.355267        64.0901 
  78   0.0000      13.690790       372.5453 
  79   0.0000      13.739757       373.8778 
  80   0.0000      13.739995       373.8843 

                    ********************************
                    * MULLIKEN POPULATION ANALYSIS *
                    ********************************

-----------------------
MULLIKEN ATOMIC CHARGES
-----------------------
   0 P :    0.272935
   1 C :   -0.810280
   2 C :   -0.811391
   3 C :   -0.810479
   4 H :    0.241020
   5 H :    0.239553
   6 H :    0.240025
   7 H :    0.238996
   8 H :    0.241466
   9 H :    0.239413
  10 H :    0.239362
  11 H :    0.240369
  12 H :    0.239013
Sum of atomic charges:    0.0000000

--------------------------------
MULLIKEN REDUCED ORBITAL CHARGES
--------------------------------
  0 P s       :     5.263248  s :     5.263248
      pz      :     2.733819  p :     9.312588
      px      :     2.749228
      py      :     3.829541
      dz2     :     0.044871  d :     0.151229
      dxz     :     0.057502
      dyz     :     0.013695
      dx2y2   :     0.022286
      dxy     :     0.012875
  1 C s       :     3.424614  s :     3.424614
      pz      :     1.028570  p :     3.351485
      px      :     1.155552
      py      :     1.167363
      dz2     :     0.006363  d :     0.034181
      dxz     :     0.003662
      dyz     :     0.010490
      dx2y2   :     0.006960
      dxy     :     0.006705
  2 C s       :     3.426310  s :     3.426310
      pz      :     1.132451  p :     3.351084
      px      :     1.062730
      py      :     1.155903
      dz2     :     0.001637  d :     0.033997
      dxz     :     0.007833
      dyz     :     0.011613
      dx2y2   :     0.004394
      dxy     :     0.008519
  3 C s       :     3.426184  s :     3.426184
      pz      :     1.129453  p :     3.350253
      px      :     1.053589
      py      :     1.167211
      dz2     :     0.002063  d :     0.034042
      dxz     :     0.007375
      dyz     :     0.011144
      dx2y2   :     0.007665
      dxy     :     0.005795
  4 H s       :     0.758980  s :     0.758980
  5 H s       :     0.760447  s :     0.760447
  6 H s       :     0.759975  s :     0.759975
  7 H s       :     0.761004  s :     0.761004
  8 H s       :     0.758534  s :     0.758534
  9 H s       :     0.760587  s :     0.760587
 10 H s       :     0.760638  s :     0.760638
 11 H s       :     0.759631  s :     0.759631
 12 H s       :     0.760987  s :     0.760987


                     *******************************
                     * LOEWDIN POPULATION ANALYSIS *
                     *******************************

----------------------
LOEWDIN ATOMIC CHARGES
----------------------
   0 P :    0.279193
   1 C :   -0.499969
   2 C :   -0.500941
   3 C :   -0.500240
   4 H :    0.137467
   5 H :    0.125793
   6 H :    0.144907
   7 H :    0.124834
   8 H :    0.139340
   9 H :    0.143317
  10 H :    0.143489
  11 H :    0.138451
  12 H :    0.124358

-------------------------------
LOEWDIN REDUCED ORBITAL CHARGES
-------------------------------
  0 P s       :     5.048962  s :     5.048962
      pz      :     2.834166  p :     9.458439
      px      :     2.847785
      py      :     3.776489
      dz2     :     0.064371  d :     0.213405
      dxz     :     0.082171
      dyz     :     0.018576
      dx2y2   :     0.030416
      dxy     :     0.017871
  1 C s       :     2.998833  s :     2.998833
      pz      :     1.113977  p :     3.440066
      px      :     1.157681
      py      :     1.168408
      dz2     :     0.013292  d :     0.061070
      dxz     :     0.006460
      dyz     :     0.019489
      dx2y2   :     0.011260
      dxy     :     0.010568
  2 C s       :     2.999537  s :     2.999537
      pz      :     1.149526  p :     3.440752
      px      :     1.127216
      py      :     1.164011
      dz2     :     0.002706  d :     0.060652
      dxz     :     0.014751
      dyz     :     0.019646
      dx2y2   :     0.008180
      dxy     :     0.015368
  3 C s       :     2.999742  s :     2.999742
      pz      :     1.148649  p :     3.439767
      px      :     1.122731
      py      :     1.168387
      dz2     :     0.003506  d :     0.060731
      dxz     :     0.013850
      dyz     :     0.018836
      dx2y2   :     0.013838
      dxy     :     0.010702
  4 H s       :     0.862533  s :     0.862533
  5 H s       :     0.874207  s :     0.874207
  6 H s       :     0.855093  s :     0.855093
  7 H s       :     0.875166  s :     0.875166
  8 H s       :     0.860660  s :     0.860660
  9 H s       :     0.856683  s :     0.856683
 10 H s       :     0.856511  s :     0.856511
 11 H s       :     0.861549  s :     0.861549
 12 H s       :     0.875642  s :     0.875642


                      *****************************
                      * MAYER POPULATION ANALYSIS *
                      *****************************

  NA   - Mulliken gross atomic population
  ZA   - Total nuclear charge
  QA   - Mulliken gross atomic charge
  VA   - Mayer's total valence
  BVA  - Mayer's bonded valence
  FA   - Mayer's free valence

  ATOM       NA         ZA         QA         VA         BVA        FA
  0 P     14.7271    15.0000     0.2729     3.0696     3.0696    -0.0000
  1 C      6.8103     6.0000    -0.8103     3.7774     3.7774    -0.0000
  2 C      6.8114     6.0000    -0.8114     3.7719     3.7719     0.0000
  3 C      6.8105     6.0000    -0.8105     3.7743     3.7743     0.0000
  4 H      0.7590     1.0000     0.2410     0.8952     0.8952    -0.0000
  5 H      0.7604     1.0000     0.2396     0.8879     0.8879     0.0000
  6 H      0.7600     1.0000     0.2400     0.9011     0.9011     0.0000
  7 H      0.7610     1.0000     0.2390     0.8874     0.8874     0.0000
  8 H      0.7585     1.0000     0.2415     0.8958     0.8958     0.0000
  9 H      0.7606     1.0000     0.2394     0.9008     0.9008    -0.0000
 10 H      0.7606     1.0000     0.2394     0.9012     0.9012     0.0000
 11 H      0.7596     1.0000     0.2404     0.8961     0.8961     0.0000
 12 H      0.7610     1.0000     0.2390     0.8867     0.8867    -0.0000

  Mayer bond orders larger than 0.100000
B(  0-P ,  1-C ) :   1.0204 B(  0-P ,  2-C ) :   1.0134 B(  0-P ,  3-C ) :   1.0163 
B(  1-C , 10-H ) :   0.9064 B(  1-C , 11-H ) :   0.9036 B(  1-C , 12-H ) :   0.8951 
B(  2-C ,  4-H ) :   0.9033 B(  2-C ,  5-H ) :   0.8966 B(  2-C ,  6-H ) :   0.9068 
B(  3-C ,  7-H ) :   0.8956 B(  3-C ,  8-H ) :   0.9036 B(  3-C ,  9-H ) :   0.9065 


-------
TIMINGS
-------

Total SCF time: 0 days 0 hours 0 min 44 sec 

Total time                  ....      44.715 sec
Sum of individual times     ....      40.821 sec  ( 91.3%)

Fock matrix formation       ....      33.055 sec  ( 73.9%)
  Split-RI-J                ....       3.733 sec  ( 11.3% of F)
  Chain of spheres X        ....      12.811 sec  ( 38.8% of F)
  XC integration            ....       9.030 sec  ( 27.3% of F)
    Basis function eval.    ....       2.180 sec  ( 24.1% of XC)
    Density eval.           ....       1.237 sec  ( 13.7% of XC)
    XC-Functional eval.     ....       1.256 sec  ( 13.9% of XC)
    XC-Potential eval.      ....       0.605 sec  (  6.7% of XC)
Diagonalization             ....       0.056 sec  (  0.1%)
Density matrix formation    ....       0.018 sec  (  0.0%)
Population analysis         ....       0.009 sec  (  0.0%)
Initial guess               ....       0.005 sec  (  0.0%)
Orbital Transformation      ....       0.000 sec  (  0.0%)
Orbital Orthonormalization  ....       0.000 sec  (  0.0%)
DIIS solution               ....       1.302 sec  (  2.9%)
SOSCF solution              ....       0.115 sec  (  0.3%)
Grid generation             ....       6.263 sec  ( 14.0%)

Maximum memory used throughout the entire SCF-calculation: 49.7 MB


-------------------------------------------------------------------------------
                          DFT DISPERSION CORRECTION                            
                                                                               
                              DFTD3 V3.1  Rev 1                                
                          USING Becke-Johnson damping                          
-------------------------------------------------------------------------------
The PBEh-3c composite method is recognized
Using three-body term ABC
Active option DFTDOPT                   ...         4   

molecular C6(AA) [au] = 1662.941789 


            DFT-D V3
 parameters
 s6 scaling factor         :     1.0000 
 a1 scaling factor         :     0.4860 
 s8 scaling factor         :     0.0000 
 a2 scaling factor         :     4.5000 
 Damping factor alpha9(ATM):    16.0000 
 ad hoc parameters k1-k3   :    16.0000     1.3333    -4.0000 

 Edisp/kcal,au: -3.164597379960  -0.005043106396 
 E6   /kcal   :  -3.178011431 
 E8   /kcal   :  -0.000000000 
 E6(ABC)      :   0.013414051 
 % E8         :   0.000000000 
 % E6(ABC)    :  -0.423878607 

-------------------------   ----------------
Dispersion correction           -0.005043106
-------------------------   ----------------

------------------   -----------------
gCP correction             0.010973782
------------------   -----------------

-------------------------   --------------------
FINAL SINGLE POINT ENERGY      -460.368436521706
-------------------------   --------------------


                            ***************************************
                            *     ORCA property calculations      *
                            ***************************************

                                    ---------------------
                                    Active property flags
                                    ---------------------
   (+) Dipole Moment


------------------------------------------------------------------------------
                       ORCA ELECTRIC PROPERTIES CALCULATION
------------------------------------------------------------------------------

Dipole Moment Calculation                       ... on
Quadrupole Moment Calculation                   ... off
Polarizability Calculation                      ... off
GBWName                                         ... pbeh-3c.gbw
Electron density                                ... pbeh-3c.scfp
The origin for moment calculation is the CENTER OF MASS  = ( 0.011140,  0.067565 -0.022156)

-------------
DIPOLE MOMENT
-------------
                                X             Y             Z
Electronic contribution:      0.04963       0.33242      -0.11699
Nuclear contribution   :     -0.07609      -0.45432       0.15053
                        -----------------------------------------
Total Dipole Moment    :     -0.02647      -0.12190       0.03353
                        -----------------------------------------
Magnitude (a.u.)       :      0.12917
Magnitude (Debye)      :      0.32833



--------------------
Rotational spectrum 
--------------------
 
Rotational constants in cm-1:     0.190245     0.186605     0.099551 
Rotational constants in MHz :  5703.397121  5594.271557  2984.465044 

 Dipole components along the rotational axes: 
x,y,z [a.u.] :    -0.004220     0.024214     0.126812 
x,y,z [Debye]:    -0.010727     0.061548     0.322330 

 

Timings for individual modules:

Sum of individual times         ...       48.165 sec (=   0.803 min)
GTO integral calculation        ...        2.584 sec (=   0.043 min)   5.4 %
SCF iterations                  ...       45.581 sec (=   0.760 min)  94.6 %
                             ****ORCA TERMINATED NORMALLY****
TOTAL RUN TIME: 0 days 0 hours 0 minutes 49 seconds 624 msec
