
                                 *****************
                                 * O   R   C   A *
                                 *****************

                                            #,                                       
                                            ###                                      
                                            ####                                     
                                            #####                                    
                                            ######                                   
                                           ########,                                 
                                     ,,################,,,,,                         
                               ,,#################################,,                 
                          ,,##########################################,,             
                       ,#########################################, ''#####,          
                    ,#############################################,,   '####,        
                  ,##################################################,,,,####,       
                ,###########''''           ''''###############################       
              ,#####''   ,,,,##########,,,,          '''####'''          '####       
            ,##' ,,,,###########################,,,                        '##       
           ' ,,###''''                  '''############,,,                           
         ,,##''                                '''############,,,,        ,,,,,,###''
      ,#''                                            '''#######################'''  
     '                                                          ''''####''''         
             ,#######,   #######,   ,#######,      ##                                
            ,#'     '#,  ##    ##  ,#'     '#,    #''#        ######   ,####,        
            ##       ##  ##   ,#'  ##            #'  '#       #        #'  '#        
            ##       ##  #######   ##           ,######,      #####,   #    #        
            '#,     ,#'  ##    ##  '#,     ,#' ,#      #,         ##   #,  ,#        
             '#######'   ##     ##  '#######'  #'      '#     #####' # '####'        



                  #######################################################
                  #                        -***-                        #
                  #          Department of theory and spectroscopy      #
                  #    Directorship and core code : Frank Neese         #
                  #        Max Planck Institute fuer Kohlenforschung    #
                  #                Kaiser Wilhelm Platz 1               #
                  #                 D-45470 Muelheim/Ruhr               #
                  #                      Germany                        #
                  #                                                     #
                  #                  All rights reserved                #
                  #                        -***-                        #
                  #######################################################


                         Program Version 5.0.3 -  RELEASE  -


 With contributions from (in alphabetic order):
   Daniel Aravena         : Magnetic Suceptibility
   Michael Atanasov       : Ab Initio Ligand Field Theory (pilot matlab implementation)
   Alexander A. Auer      : GIAO ZORA, VPT2 properties, NMR spectrum
   Ute Becker             : Parallelization
   Giovanni Bistoni       : ED, misc. LED, open-shell LED, HFLD
   Martin Brehm           : Molecular dynamics
   Dmytro Bykov           : SCF Hessian
   Vijay G. Chilkuri      : MRCI spin determinant printing, contributions to CSF-ICE
   Dipayan Datta          : RHF DLPNO-CCSD density
   Achintya Kumar Dutta   : EOM-CC, STEOM-CC
   Dmitry Ganyushin       : Spin-Orbit,Spin-Spin,Magnetic field MRCI
   Miquel Garcia          : C-PCM and meta-GGA Hessian, CC/C-PCM, Gaussian charge scheme
   Yang Guo               : DLPNO-NEVPT2, F12-NEVPT2, CIM, IAO-localization
   Andreas Hansen         : Spin unrestricted coupled pair/coupled cluster methods
   Benjamin Helmich-Paris : MC-RPA, TRAH-SCF, COSX integrals
   Lee Huntington         : MR-EOM, pCC
   Robert Izsak           : Overlap fitted RIJCOSX, COSX-SCS-MP3, EOM
   Marcus Kettner         : VPT2
   Christian Kollmar      : KDIIS, OOCD, Brueckner-CCSD(T), CCSD density, CASPT2, CASPT2-K
   Simone Kossmann        : Meta GGA functionals, TD-DFT gradient, OOMP2, MP2 Hessian
   Martin Krupicka        : Initial AUTO-CI
   Lucas Lang             : DCDCAS
   Marvin Lechner         : AUTO-CI (C++ implementation), FIC-MRCC
   Dagmar Lenk            : GEPOL surface, SMD
   Dimitrios Liakos       : Extrapolation schemes; Compound Job, initial MDCI parallelization
   Dimitrios Manganas     : Further ROCIS development; embedding schemes
   Dimitrios Pantazis     : SARC Basis sets
   Anastasios Papadopoulos: AUTO-CI, single reference methods and gradients
   Taras Petrenko         : DFT Hessian,TD-DFT gradient, ASA, ECA, R-Raman, ABS, FL, XAS/XES, NRVS
   Peter Pinski           : DLPNO-MP2, DLPNO-MP2 Gradient
   Christoph Reimann      : Effective Core Potentials
   Marius Retegan         : Local ZFS, SOC
   Christoph Riplinger    : Optimizer, TS searches, QM/MM, DLPNO-CCSD(T), (RO)-DLPNO pert. Triples
   Tobias Risthaus        : Range-separated hybrids, TD-DFT gradient, RPA, STAB
   Michael Roemelt        : Original ROCIS implementation
   Masaaki Saitow         : Open-shell DLPNO-CCSD energy and density
   Barbara Sandhoefer     : DKH picture change effects
   Avijit Sen             : IP-ROCIS
   Kantharuban Sivalingam : CASSCF convergence, NEVPT2, FIC-MRCI
   Bernardo de Souza      : ESD, SOC TD-DFT
   Georgi Stoychev        : AutoAux, RI-MP2 NMR, DLPNO-MP2 response
   Willem Van den Heuvel  : Paramagnetic NMR
   Boris Wezisla          : Elementary symmetry handling
   Frank Wennmohs         : Technical directorship


 We gratefully acknowledge several colleagues who have allowed us to
 interface, adapt or use parts of their codes:
   Stefan Grimme, W. Hujo, H. Kruse, P. Pracht,  : VdW corrections, initial TS optimization,
                  C. Bannwarth, S. Ehlert          DFT functionals, gCP, sTDA/sTD-DF
   Ed Valeev, F. Pavosevic, A. Kumar             : LibInt (2-el integral package), F12 methods
   Garnet Chan, S. Sharma, J. Yang, R. Olivares  : DMRG
   Ulf Ekstrom                                   : XCFun DFT Library
   Mihaly Kallay                                 : mrcc  (arbitrary order and MRCC methods)
   Jiri Pittner, Ondrej Demel                    : Mk-CCSD
   Frank Weinhold                                : gennbo (NPA and NBO analysis)
   Christopher J. Cramer and Donald G. Truhlar   : smd solvation model
   Lars Goerigk                                  : TD-DFT with DH, B97 family of functionals
   V. Asgeirsson, H. Jonsson                     : NEB implementation
   FAccTs GmbH                                   : IRC, NEB, NEB-TS, DLPNO-Multilevel, CI-OPT
                                                   MM, QMMM, 2- and 3-layer-ONIOM, Crystal-QMMM,
                                                   LR-CPCM, SF, NACMEs, symmetry and pop. for TD-DFT,
                                                   nearIR, NL-DFT gradient (VV10), updates on ESD,
                                                   ML-optimized integration grids
   S Lehtola, MJT Oliveira, MAL Marques          : LibXC Library
   Liviu Ungur et al                             : ANISO software


 Your calculation uses the libint2 library for the computation of 2-el integrals
 For citations please refer to: http://libint.valeyev.net

 Your ORCA version has been built with support for libXC version: 5.1.0
 For citations please refer to: https://tddft.org/programs/libxc/

 This ORCA versions uses:
   CBLAS   interface :  Fast vector & matrix operations
   LAPACKE interface :  Fast linear algebra routines
   SCALAPACK package :  Parallel linear algebra routines
   Shared memory     :  Shared parallel matrices
   BLAS/LAPACK       :  OpenBLAS 0.3.15  USE64BITINT DYNAMIC_ARCH NO_AFFINITY Haswell SINGLE_THREADED
        Core in use  :  Haswell
   Copyright (c) 2011-2014, The OpenBLAS Project




***************************************
The coordinates will be read from file: H4P2O7_1.xyz
***************************************


Your calculation utilizes the geometrical counterpoise correction gCP
Please cite in your paper:
H.Kruse, S. Grimme J.Chem.Phys., 136, (2012), 154101 
   

Your calculation utilizes the atom-pairwise dispersion correction
with the Becke-Johnson damping scheme (D3BJ)
Cite in your paper:
S.Grimme, S.Ehrlich, L.Goerigk, J Comput Chem, (2011), 32, 1456–1465 
S.Grimme, J.Antony, S.Ehrlich and H.Krieg, J.Chem.Phys., 132, (2010), 154104 
   

Your calculation employs the composite approach PBEh-3c.
Please cite in your paper:
S. Grimme, J. G. Brandenburg, C. Bannwarth, A. Hansen J.Chem.Phys., 143, (2015), 054107 
   

================================================================================

----- Orbital basis set information -----
Your calculation utilizes the basis: def2-mSVP

----- AuxJ basis set information -----
Your calculation utilizes the auxiliary basis: def2/J
   F. Weigend, Phys. Chem. Chem. Phys. 8, 1057 (2006).

================================================================================
                                        WARNINGS
                       Please study these warnings very carefully!
================================================================================


INFO   : the flag for use of the SHARK integral package has been found!

================================================================================
                                       INPUT FILE
================================================================================
NAME = pbeh-3c.inp
|  1> ! PBEh-3c def2/J TightSCF DefGrid3
|  2> 
|  3> %maxcore 60000
|  4> 
|  5> %pal
|  6> nprocs 4
|  7> end
|  8> 
|  9> *xyzfile 0 1 H4P2O7_1.xyz
| 10> 
| 11>                          ****END OF INPUT****
================================================================================

                       ****************************
                       * Single Point Calculation *
                       ****************************

---------------------------------
CARTESIAN COORDINATES (ANGSTROEM)
---------------------------------
  O     -2.538202   -0.087715   -1.027242
  P     -1.359417   -0.079704    0.029693
  O     -1.277384   -1.252855    0.934173
  O      0.000000    0.000000   -0.878837
  P      1.359417    0.079704    0.029693
  O      1.277384    1.252855    0.934173
  O      1.494162   -1.362833    0.649708
  O      2.538202    0.087715   -1.027242
  O     -1.494162    1.362833    0.649708
  H     -2.915454   -0.978737   -1.123341
  H      0.596404   -1.640774    0.976427
  H      2.915454    0.978737   -1.123341
  H     -0.596404    1.640774    0.976427

----------------------------
CARTESIAN COORDINATES (A.U.)
----------------------------
  NO LB      ZA    FRAG     MASS         X           Y           Z
   0 O     8.0000    0    15.999   -4.796507   -0.165758   -1.941207
   1 P    15.0000    0    30.974   -2.568926   -0.150619    0.056112
   2 O     8.0000    0    15.999   -2.413905   -2.367554    1.765331
   3 O     8.0000    0    15.999    0.000000    0.000000   -1.660762
   4 P    15.0000    0    30.974    2.568926    0.150619    0.056112
   5 O     8.0000    0    15.999    2.413905    2.367554    1.765331
   6 O     8.0000    0    15.999    2.823557   -2.575381    1.227771
   7 O     8.0000    0    15.999    4.796507    0.165758   -1.941207
   8 O     8.0000    0    15.999   -2.823557    2.575381    1.227771
   9 H     1.0000    0     1.008   -5.509409   -1.849544   -2.122807
  10 H     1.0000    0     1.008    1.127040   -3.100613    1.845180
  11 H     1.0000    0     1.008    5.509409    1.849544   -2.122807
  12 H     1.0000    0     1.008   -1.127040    3.100613    1.845180

--------------------------------
INTERNAL COORDINATES (ANGSTROEM)
--------------------------------
 O      0   0   0     0.000000000000     0.00000000     0.00000000
 P      1   0   0     1.583259657311     0.00000000     0.00000000
 O      2   1   0     1.483609667562   116.36888500     0.00000000
 O      2   1   3     1.637008100378   104.36084893   120.54401418
 P      4   2   1     1.637008100378   112.57932743   177.72079497
 O      5   4   2     1.483609667562   109.32551200   302.86514510
 O      5   4   2     1.575908323206   104.16938185    71.37590556
 O      5   4   2     1.583259657311   104.36084893   177.72079497
 O      2   1   3     1.575908323206   101.74850576   228.68394272
 H      1   2   3     0.972354202429   111.06790278   343.72373902
 H      7   5   4     0.994970682467   107.92352284   315.32252275
 H      8   5   4     0.972354202429   111.06790278   104.26775320
 H      9   2   1     0.994970682467   107.92352284   207.03465339

---------------------------
INTERNAL COORDINATES (A.U.)
---------------------------
 O      0   0   0     0.000000000000     0.00000000     0.00000000
 P      1   0   0     2.991927151203     0.00000000     0.00000000
 O      2   1   0     2.803615961330   116.36888500     0.00000000
 O      2   1   3     3.093496988724   104.36084893   120.54401418
 P      4   2   1     3.093496988724   112.57932743   177.72079497
 O      5   4   2     2.803615961330   109.32551200   302.86514510
 O      5   4   2     2.978035143027   104.16938185    71.37590556
 O      5   4   2     2.991927151203   104.36084893   177.72079497
 O      2   1   3     2.978035143027   101.74850576   228.68394272
 H      1   2   3     1.837483147759   111.06790278   343.72373902
 H      7   5   4     1.880222101143   107.92352284   315.32252275
 H      8   5   4     1.837483147759   111.06790278   104.26775320
 H      9   2   1     1.880222101143   107.92352284   207.03465339

---------------------
BASIS SET INFORMATION
---------------------
There are 3 groups of distinct atoms

 Group   1 Type O   : 8s4p1d contracted to 4s2p1d pattern {5111/31/1}
 Group   2 Type P   : 10s7p1d contracted to 4s3p1d pattern {5311/511/1}
 Group   3 Type H   : 4s contracted to 2s pattern {31}

Atom   0O    basis set group =>   1
Atom   1P    basis set group =>   2
Atom   2O    basis set group =>   1
Atom   3O    basis set group =>   1
Atom   4P    basis set group =>   2
Atom   5O    basis set group =>   1
Atom   6O    basis set group =>   1
Atom   7O    basis set group =>   1
Atom   8O    basis set group =>   1
Atom   9H    basis set group =>   3
Atom  10H    basis set group =>   3
Atom  11H    basis set group =>   3
Atom  12H    basis set group =>   3
---------------------------------
AUXILIARY/J BASIS SET INFORMATION
---------------------------------
There are 3 groups of distinct atoms

 Group   1 Type O   : 12s5p4d2f1g contracted to 6s4p3d1f1g pattern {711111/2111/211/2/1}
 Group   2 Type P   : 14s5p5d2f1g contracted to 8s4p3d1f1g pattern {71111111/2111/311/2/1}
 Group   3 Type H   : 5s2p1d contracted to 3s1p1d pattern {311/2/1}

Atom   0O    basis set group =>   1
Atom   1P    basis set group =>   2
Atom   2O    basis set group =>   1
Atom   3O    basis set group =>   1
Atom   4P    basis set group =>   2
Atom   5O    basis set group =>   1
Atom   6O    basis set group =>   1
Atom   7O    basis set group =>   1
Atom   8O    basis set group =>   1
Atom   9H    basis set group =>   3
Atom  10H    basis set group =>   3
Atom  11H    basis set group =>   3
Atom  12H    basis set group =>   3


           ************************************************************
           *        Program running with 4 parallel MPI-processes     *
           *              working on a common directory               *
           ************************************************************
------------------------------------------------------------------------------
                           ORCA GTO INTEGRAL CALCULATION
                           -- RI-GTO INTEGRALS CHOSEN --
------------------------------------------------------------------------------
------------------------------------------------------------------------------
                   ___                                                        
                  /   \      - P O W E R E D   B Y -                         
                 /     \                                                     
                 |  |  |   _    _      __       _____    __    __             
                 |  |  |  | |  | |    /  \     |  _  \  |  |  /  |          
                  \  \/   | |  | |   /    \    | | | |  |  | /  /          
                 / \  \   | |__| |  /  /\  \   | |_| |  |  |/  /          
                |  |  |   |  __  | /  /__\  \  |    /   |      \           
                |  |  |   | |  | | |   __   |  |    \   |  |\   \          
                \     /   | |  | | |  |  |  |  | |\  \  |  | \   \       
                 \___/    |_|  |_| |__|  |__|  |_| \__\ |__|  \__/        
                                                                              
                      - O R C A' S   B I G   F R I E N D -                    
                                      &                                       
                       - I N T E G R A L  F E E D E R -                       
                                                                              
 v1 FN, 2020, v2 2021                                                         
------------------------------------------------------------------------------


Reading SHARK input file pbeh-3c.SHARKINP.tmp ... ok
----------------------
SHARK INTEGRAL PACKAGE
----------------------

Number of atoms                             ...     13
Number of basis functions                   ...    149
Number of shells                            ...     73
Maximum angular momentum                    ...      2
Integral batch strategy                     ... SHARK/LIBINT Hybrid
RI-J (if used) integral strategy            ... SPLIT-RIJ (Revised 2003 algorithm where possible)
Printlevel                                  ...      1
Contraction scheme used                     ... SEGMENTED contraction
Coulomb Range Separation                    ... NOT USED
Exchange Range Separation                   ... NOT USED
Finite Nucleus Model                        ... NOT USED
Auxiliary Coulomb fitting basis             ... AVAILABLE
   # of basis functions in Aux-J            ...    489
   # of shells in Aux-J                     ...    159
   Maximum angular momentum in Aux-J        ...      4
Auxiliary J/K fitting basis                 ... NOT available
Auxiliary Correlation fitting basis         ... NOT available
Auxiliary 'external' fitting basis          ... NOT available
Integral threshold                          ...     2.500000e-11
Primitive cut-off                           ...     2.500000e-12
Primitive pair pre-selection threshold      ...     2.500000e-12

Calculating pre-screening integrals         ... done (  0.0 sec) Dimension = 73
Organizing shell pair data                  ... done (  0.2 sec)
Shell pair information
Total number of shell pairs                 ...      2701
Shell pairs after pre-screening             ...      2342
Total number of primitive shell pairs       ...     10445
Primitive shell pairs kept                  ...      6188
          la=0 lb=0:    770 shell pairs
          la=1 lb=0:    808 shell pairs
          la=1 lb=1:    202 shell pairs
          la=2 lb=0:    350 shell pairs
          la=2 lb=1:    168 shell pairs
          la=2 lb=2:     44 shell pairs

Calculating one electron integrals          ... done (  0.0 sec)
Calculating RI/J V-Matrix + Cholesky decomp.... done (  0.7 sec)
Calculating Nuclear repulsion               ... done (  0.2 sec) ENN=    791.441834096787 Eh

SHARK setup successfully completed in   2.6 seconds

Maximum memory used throughout the entire GTOINT-calculation: 11.1 MB


           ************************************************************
           *        Program running with 4 parallel MPI-processes     *
           *              working on a common directory               *
           ************************************************************
-------------------------------------------------------------------------------
                                 ORCA SCF
-------------------------------------------------------------------------------

------------
SCF SETTINGS
------------
Hamiltonian:
 Density Functional     Method          .... DFT(GTOs)
 Exchange Functional    Exchange        .... PBE
   PBE kappa parameter   XKappa         ....  1.024500
   PBE mue parameter    XMuePBE         ....  0.123457
 Correlation Functional Correlation     .... PBE
   PBE beta parameter  CBetaPBE         ....  0.030000
 LDA part of GGA corr.  LDAOpt          .... PW91-LDA
 Gradients option       PostSCFGGA      .... off
 Hybrid DFT is turned on
   Fraction HF Exchange ScalHFX         ....  0.420000
   Scaling of DF-GGA-X  ScalDFX         ....  0.580000
   Scaling of DF-GGA-C  ScalDFC         ....  1.000000
   Scaling of DF-LDA-C  ScalLDAC        ....  1.000000
   Perturbative correction              ....  0.000000
   Density functional embedding theory  .... OFF
 RI-approximation to the Coulomb term is turned on
   Number of AuxJ basis functions       .... 489
   RIJ-ON(X) (HFX calculated with O(N)) .... on
   Number of AuxJ basis functions       .... 489
   RIJ-COSX (HFX calculated with COS-X)).... on


General Settings:
 Integral files         IntName         .... pbeh-3c
 Hartree-Fock type      HFTyp           .... RHF
 Total Charge           Charge          ....    0
 Multiplicity           Mult            ....    1
 Number of Electrons    NEL             ....   90
 Basis Dimension        Dim             ....  149
 Nuclear Repulsion      ENuc            ....    791.4418340968 Eh

Convergence Acceleration:
 DIIS                   CNVDIIS         .... on
   Start iteration      DIISMaxIt       ....    12
   Startup error        DIISStart       ....  0.200000
   # of expansion vecs  DIISMaxEq       ....     5
   Bias factor          DIISBfac        ....   1.050
   Max. coefficient     DIISMaxC        ....  10.000
 Trust-Rad. Augm. Hess. CNVTRAH         .... auto
   Auto Start mean grad. ratio tolernc. ....  1.125000
   Auto Start start iteration           ....    20
   Auto Start num. interpolation iter.  ....    10
   Max. Number of Micro iterations      ....    16
   Max. Number of Macro iterations      .... Maxiter - #DIIS iter
   Number of Davidson start vectors     ....     2
   Converg. threshold I  (grad. norm)   ....   1.000e-05
   Converg. threshold II (energy diff.) ....   1.000e-08
   Grad. Scal. Fac. for Micro threshold ....   0.100
   Minimum threshold for Micro iter.    ....   0.010
   NR start threshold (gradient norm)   ....   0.001
   Initial trust radius                 ....   0.400
   Minimum AH scaling param. (alpha)    ....   1.000
   Maximum AH scaling param. (alpha)    .... 1000.000
   Orbital update algorithm             .... Taylor
   White noise on init. David. guess    .... on
   Maximum white noise                  ....   0.010
   Quad. conv. algorithm                .... NR
   COSX micro iterations for RIJONX calc.... off
 SOSCF                  CNVSOSCF        .... on
   Start iteration      SOSCFMaxIt      ....   150
   Startup grad/error   SOSCFStart      ....  0.003300
 Level Shifting         CNVShift        .... on
   Level shift para.    LevelShift      ....    0.2500
   Turn off err/grad.   ShiftErr        ....    0.0010
 Zerner damping         CNVZerner       .... off
 Static damping         CNVDamp         .... on
   Fraction old density DampFac         ....    0.7000
   Max. Damping (<1)    DampMax         ....    0.9800
   Min. Damping (>=0)   DampMin         ....    0.0000
   Turn off err/grad.   DampErr         ....    0.1000
 Fernandez-Rico         CNVRico         .... off

SCF Procedure:
 Maximum # iterations   MaxIter         ....   125
 SCF integral mode      SCFMode         .... Direct
   Integral package                     .... SHARK and LIBINT hybrid scheme
 Reset frequency        DirectResetFreq ....    20
 Integral Threshold     Thresh          ....  2.500e-11 Eh
 Primitive CutOff       TCut            ....  2.500e-12 Eh

Convergence Tolerance:
 Convergence Check Mode ConvCheckMode   .... Total+1el-Energy
 Convergence forced     ConvForced      .... 0
 Energy Change          TolE            ....  1.000e-08 Eh
 1-El. energy change                    ....  1.000e-05 Eh
 Orbital Gradient       TolG            ....  1.000e-05
 Orbital Rotation angle TolX            ....  1.000e-05
 DIIS Error             TolErr          ....  5.000e-07


Diagonalization of the overlap matrix:
Smallest eigenvalue                        ... 1.232e-02
Time for diagonalization                   ...    0.007 sec
Threshold for overlap eigenvalues          ... 1.000e-08
Number of eigenvalues below threshold      ... 0
Time for construction of square roots      ...    0.244 sec
Total time needed                          ...    0.252 sec

--------------------------------
INITIAL GUESS: MINIMAL BASIS EHT
--------------------------------
The minimal basis has 57 functions
EHT matrix was diagonalized
Basis set overlap was calculated now projecting the orbitals
Using GuessMode=FMatrix for the initial guess
C*T matrix was formed
Effective Fockian was calculated
Effective Fockian was diagonalized
Initial density was built
                      ------------------
                      INITIAL GUESS DONE
                      ------------------
-------------------
DFT GRID GENERATION
-------------------

General Integration Accuracy     IntAcc      ... 4.959
Radial Grid Type                 RadialGrid  ... OptM3 with GC (2021)
Angular Grid (max. ang.)         AngularGrid ... 6 (Lebedev-590)
Angular grid pruning method      GridPruning ... 4 (adaptive)
Weight generation scheme         WeightScheme... Becke
Basis function cutoff            BFCut       ... 1.0000e-11
Integration weight cutoff        WCut        ... 1.0000e-14
Angular grids for H and He will be reduced by one unit
Partially contracted basis set               ... off
Rotationally invariant grid construction     ... off

Total number of grid points                  ...   168426
Total number of batches                      ...     2638
Average number of points per batch           ...       63
Average number of grid points per atom       ...    12956
Time for grid setup =    3.412 sec

--------------------
COSX GRID GENERATION
--------------------

GRIDX 1
-------
General Integration Accuracy     IntAcc      ... 4.020
Radial Grid Type                 RadialGrid  ... OptM3 with GC (2021)
Angular Grid (max. ang.)         AngularGrid ... 2 (Lebedev-110)
Angular grid pruning method      GridPruning ... 4 (adaptive)
Weight generation scheme         WeightScheme... Becke
Basis function cutoff            BFCut       ... 1.0000e-11
Integration weight cutoff        WCut        ... 1.0000e-14
Angular grids for H and He will be reduced by one unit
Partially contracted basis set               ... on
Rotationally invariant grid construction     ... off

Total number of grid points                  ...    19801
Total number of batches                      ...      315
Average number of points per batch           ...       62
Average number of grid points per atom       ...     1523
UseSFitting                                  ... on

GRIDX 2
-------
General Integration Accuracy     IntAcc      ... 4.338
Radial Grid Type                 RadialGrid  ... OptM3 with GC (2021)
Angular Grid (max. ang.)         AngularGrid ... 3 (Lebedev-194)
Angular grid pruning method      GridPruning ... 4 (adaptive)
Weight generation scheme         WeightScheme... Becke
Basis function cutoff            BFCut       ... 1.0000e-11
Integration weight cutoff        WCut        ... 1.0000e-14
Angular grids for H and He will be reduced by one unit
Partially contracted basis set               ... on
Rotationally invariant grid construction     ... off

Total number of grid points                  ...    44848
Total number of batches                      ...      709
Average number of points per batch           ...       63
Average number of grid points per atom       ...     3450
UseSFitting                                  ... on

GRIDX 3
-------
General Integration Accuracy     IntAcc      ... 4.871
Radial Grid Type                 RadialGrid  ... OptM3 with GC (2021)
Angular Grid (max. ang.)         AngularGrid ... 4 (Lebedev-302)
Angular grid pruning method      GridPruning ... 4 (adaptive)
Weight generation scheme         WeightScheme... Becke
Basis function cutoff            BFCut       ... 1.0000e-11
Integration weight cutoff        WCut        ... 1.0000e-14
Angular grids for H and He will be reduced by one unit
Partially contracted basis set               ... on
Rotationally invariant grid construction     ... off

Total number of grid points                  ...    81922
Total number of batches                      ...     1286
Average number of points per batch           ...       63
Average number of grid points per atom       ...     6302
UseSFitting                                  ... on

Time for X-Grid setup             =    5.954 sec

--------------
SCF ITERATIONS
--------------
ITER       Energy         Delta-E        Max-DP      RMS-DP      [F,P]     Damp
               ***  Starting incremental Fock matrix formation  ***
  0  -1206.5753387504   0.000000000000 0.38674995  0.00902228  0.6895310 0.7000
  1  -1207.9276886822  -1.352349931819 0.15483445  0.00466431  0.3463851 0.7000
  2  -1208.5717131698  -0.644024487589 0.05210834  0.00236276  0.2444769 0.7000
                               ***Turning on DIIS***
  3  -1209.0061692753  -0.434456105512 0.02667710  0.00148683  0.1690609 0.7000
  4  -1209.3153943595  -0.309225084153 0.02034358  0.00104619  0.1153690 0.7000
  5  -1209.5332513524  -0.217856992921 0.04181624  0.00248588  0.0795964 0.0000
  6  -1210.0465943874  -0.513343034977 0.00578086  0.00016152  0.0060317 0.0000
  7  -1210.0467462339  -0.000151846529 0.00202942  0.00005402  0.0035748 0.0000
                      *** Initiating the SOSCF procedure ***
                           *** Shutting down DIIS ***
                      *** Re-Reading the Fockian *** 
                      *** Removing any level shift *** 
ITER      Energy       Delta-E        Grad      Rot      Max-DP    RMS-DP
  8  -1210.04678844  -0.0000422011  0.000297  0.000297  0.000685  0.000036
               *** Restarting incremental Fock matrix formation ***
  9  -1210.04679692  -0.0000084802  0.000155  0.000306  0.000763  0.000022
 10  -1210.04679586   0.0000010595  0.000265  0.000211  0.000445  0.000013
 11  -1210.04679794  -0.0000020830  0.000013  0.000015  0.000048  0.000001
 12  -1210.04679794  -0.0000000008  0.000012  0.000006  0.000029  0.000001
                  ***Gradient check signals convergence***
              ***Rediagonalizing the Fockian in SOSCF/NRSCF***

               *****************************************************
               *                     SUCCESS                       *
               *           SCF CONVERGED AFTER  13 CYCLES          *
               *****************************************************

Old exchange energy                            =    -43.977721601 Eh
New exchange energy                            =    -43.977719317 Eh
Exchange energy change after final integration =      0.000002284 Eh
Total energy after final integration           =  -1210.046795655 Eh
Final COS-X integration done in                =     4.952 sec

----------------
TOTAL SCF ENERGY
----------------

Total Energy       :        -1210.04679565 Eh          -32927.04729 eV

Components:
Nuclear Repulsion  :          791.44183410 Eh           21536.22719 eV
Electronic Energy  :        -2001.48862975 Eh          -54463.27447 eV
One Electron Energy:        -3246.18772118 Eh          -88333.25867 eV
Two Electron Energy:         1244.69909143 Eh           33869.98419 eV
Max COSX asymmetry :            0.00000243 Eh               0.00007 eV

Virial components:
Potential Energy   :        -2414.96200533 Eh          -65714.45702 eV
Kinetic Energy     :         1204.91520967 Eh           32787.40973 eV
Virial Ratio       :            2.00425888


DFT components:
N(Alpha)           :       44.999999881158 electrons
N(Beta)            :       44.999999881158 electrons
N(Total)           :       89.999999762317 electrons
E(X)               :      -58.670408169226 Eh       
E(C)               :       -4.338820988913 Eh       
E(XC)              :      -63.009229158139 Eh       
DFET-embed. en.    :        0.000000000000 Eh       

---------------
SCF CONVERGENCE
---------------

  Last Energy change         ...    7.1395e-10  Tolerance :   1.0000e-08
  Last MAX-Density change    ...    3.5245e-15  Tolerance :   1.0000e-07
  Last RMS-Density change    ...    6.7223e-17  Tolerance :   5.0000e-09
  Last Orbital Gradient      ...    6.8621e-07  Tolerance :   1.0000e-05
  Last Orbital Rotation      ...    9.6240e-07  Tolerance :   1.0000e-05

             **** THE GBW FILE WAS UPDATED (pbeh-3c.gbw) ****
             **** DENSITY pbeh-3c.scfp WAS UPDATED ****
             **** ENERGY FILE WAS UPDATED (pbeh-3c.en.tmp) ****
             **** THE GBW FILE WAS UPDATED (pbeh-3c.gbw) ****
             **** DENSITY pbeh-3c.scfp WAS UPDATED ****
----------------
ORBITAL ENERGIES
----------------

  NO   OCC          E(Eh)            E(eV) 
   0   2.0000     -77.945479     -2121.0043 
   1   2.0000     -77.945467     -2121.0040 
   2   2.0000     -19.569051      -532.5010 
   3   2.0000     -19.567402      -532.4561 
   4   2.0000     -19.567369      -532.4552 
   5   2.0000     -19.546993      -531.9007 
   6   2.0000     -19.546955      -531.8997 
   7   2.0000     -19.490726      -530.3696 
   8   2.0000     -19.490704      -530.3690 
   9   2.0000      -6.990107      -190.2105 
  10   2.0000      -6.990102      -190.2104 
  11   2.0000      -5.084630      -138.3598 
  12   2.0000      -5.084577      -138.3584 
  13   2.0000      -5.083993      -138.3425 
  14   2.0000      -5.083990      -138.3424 
  15   2.0000      -5.082342      -138.2975 
  16   2.0000      -5.082340      -138.2975 
  17   2.0000      -1.260462       -34.2989 
  18   2.0000      -1.224752       -33.3272 
  19   2.0000      -1.181745       -32.1569 
  20   2.0000      -1.170535       -31.8519 
  21   2.0000      -1.159370       -31.5481 
  22   2.0000      -1.107293       -30.1310 
  23   2.0000      -1.096146       -29.8277 
  24   2.0000      -0.769741       -20.9457 
  25   2.0000      -0.731334       -19.9006 
  26   2.0000      -0.660094       -17.9621 
  27   2.0000      -0.629243       -17.1226 
  28   2.0000      -0.611899       -16.6506 
  29   2.0000      -0.595166       -16.1953 
  30   2.0000      -0.565034       -15.3754 
  31   2.0000      -0.554791       -15.0966 
  32   2.0000      -0.546240       -14.8639 
  33   2.0000      -0.504839       -13.7374 
  34   2.0000      -0.489071       -13.3083 
  35   2.0000      -0.486288       -13.2326 
  36   2.0000      -0.469428       -12.7738 
  37   2.0000      -0.456935       -12.4338 
  38   2.0000      -0.439906       -11.9705 
  39   2.0000      -0.438283       -11.9263 
  40   2.0000      -0.434699       -11.8288 
  41   2.0000      -0.391523       -10.6539 
  42   2.0000      -0.389953       -10.6112 
  43   2.0000      -0.385314       -10.4849 
  44   2.0000      -0.378119       -10.2892 
  45   0.0000       0.057167         1.5556 
  46   0.0000       0.091457         2.4887 
  47   0.0000       0.104022         2.8306 
  48   0.0000       0.112516         3.0617 
  49   0.0000       0.140104         3.8124 
  50   0.0000       0.157248         4.2789 
  51   0.0000       0.164805         4.4846 
  52   0.0000       0.185834         5.0568 
  53   0.0000       0.192705         5.2438 
  54   0.0000       0.227475         6.1899 
  55   0.0000       0.251186         6.8351 
  56   0.0000       0.294519         8.0143 
  57   0.0000       0.333422         9.0729 
  58   0.0000       0.354562         9.6481 
  59   0.0000       0.499776        13.5996 
  60   0.0000       0.516388        14.0516 
  61   0.0000       0.531476        14.4622 
  62   0.0000       0.560354        15.2480 
  63   0.0000       0.576533        15.6883 
  64   0.0000       0.587760        15.9938 
  65   0.0000       0.592615        16.1259 
  66   0.0000       0.619289        16.8517 
  67   0.0000       0.647798        17.6275 
  68   0.0000       0.738020        20.0825 
  69   0.0000       0.786662        21.4062 
  70   0.0000       0.787855        21.4386 
  71   0.0000       0.811375        22.0786 
  72   0.0000       0.822777        22.3889 
  73   0.0000       0.856672        23.3112 
  74   0.0000       0.902123        24.5480 
  75   0.0000       0.911856        24.8129 
  76   0.0000       0.960904        26.1475 
  77   0.0000       0.985645        26.8208 
  78   0.0000       0.990471        26.9521 
  79   0.0000       1.005215        27.3533 
  80   0.0000       1.006976        27.4012 
  81   0.0000       1.044291        28.4166 
  82   0.0000       1.057672        28.7807 
  83   0.0000       1.062535        28.9131 
  84   0.0000       1.071692        29.1622 
  85   0.0000       1.099805        29.9272 
  86   0.0000       1.108055        30.1517 
  87   0.0000       1.111145        30.2358 
  88   0.0000       1.133635        30.8478 
  89   0.0000       1.148618        31.2555 
  90   0.0000       1.189993        32.3814 
  91   0.0000       1.207858        32.8675 
  92   0.0000       1.227579        33.4041 
  93   0.0000       1.269059        34.5329 
  94   0.0000       1.282081        34.8872 
  95   0.0000       1.298966        35.3467 
  96   0.0000       1.316302        35.8184 
  97   0.0000       1.324312        36.0364 
  98   0.0000       1.397661        38.0323 
  99   0.0000       1.441302        39.2198 
 100   0.0000       1.720636        46.8209 
 101   0.0000       1.734594        47.2007 
 102   0.0000       1.743779        47.4506 
 103   0.0000       1.749684        47.6113 
 104   0.0000       1.753255        47.7085 
 105   0.0000       1.760770        47.9130 
 106   0.0000       1.784410        48.5563 
 107   0.0000       1.788206        48.6596 
 108   0.0000       1.796979        48.8983 
 109   0.0000       1.804136        49.0930 
 110   0.0000       1.811626        49.2968 
 111   0.0000       1.812512        49.3210 
 112   0.0000       1.844330        50.1868 
 113   0.0000       1.858358        50.5685 
 114   0.0000       1.862812        50.6897 
 115   0.0000       1.894264        51.5455 
 116   0.0000       1.896630        51.6099 
 117   0.0000       1.906915        51.8898 
 118   0.0000       2.010289        54.7027 
 119   0.0000       2.012093        54.7518 
 120   0.0000       2.018886        54.9367 
 121   0.0000       2.114315        57.5334 
 122   0.0000       2.124026        57.7977 
 123   0.0000       2.185386        59.4674 
 124   0.0000       2.248738        61.1913 
 125   0.0000       2.264060        61.6082 
 126   0.0000       2.282163        62.1008 
 127   0.0000       2.332558        63.4721 
 128   0.0000       2.345069        63.8126 
 129   0.0000       2.355491        64.0962 
 130   0.0000       2.499921        68.0263 
 131   0.0000       2.509192        68.2786 
 132   0.0000       2.538810        69.0845 
 133   0.0000       2.549561        69.3771 
 134   0.0000       2.565612        69.8139 
 135   0.0000       2.589936        70.4757 
 136   0.0000       2.642002        71.8925 
 137   0.0000       2.672322        72.7176 
 138   0.0000       2.739520        74.5461 
 139   0.0000       2.765128        75.2430 
 140   0.0000       2.819363        76.7188 
 141   0.0000       2.837695        77.2176 
 142   0.0000      25.417002       691.6318 
 143   0.0000      25.474660       693.2007 
 144   0.0000      25.509867       694.1588 
 145   0.0000      25.534690       694.8343 
 146   0.0000      25.580704       696.0863 
 147   0.0000      25.632134       697.4858 
 148   0.0000      25.695091       699.1990 

                    ********************************
                    * MULLIKEN POPULATION ANALYSIS *
                    ********************************

-----------------------
MULLIKEN ATOMIC CHARGES
-----------------------
   0 O :   -0.675246
   1 P :    1.422466
   2 O :   -0.668183
   3 O :   -0.669959
   4 P :    1.422466
   5 O :   -0.668183
   6 O :   -0.706064
   7 O :   -0.675246
   8 O :   -0.706064
   9 H :    0.473377
  10 H :    0.488629
  11 H :    0.473377
  12 H :    0.488629
Sum of atomic charges:   -0.0000000

--------------------------------
MULLIKEN REDUCED ORBITAL CHARGES
--------------------------------
  0 O s       :     3.809802  s :     3.809802
      pz      :     1.694632  p :     4.839614
      px      :     1.594447
      py      :     1.550535
      dz2     :     0.006230  d :     0.025830
      dxz     :     0.004827
      dyz     :     0.002359
      dx2y2   :     0.008100
      dxy     :     0.004315
  1 P s       :     4.914938  s :     4.914938
      pz      :     2.640005  p :     7.923773
      px      :     2.631955
      py      :     2.651813
      dz2     :     0.128732  d :     0.738823
      dxz     :     0.165430
      dyz     :     0.148733
      dx2y2   :     0.184244
      dxy     :     0.111684
  2 O s       :     3.821611  s :     3.821611
      pz      :     1.605575  p :     4.820300
      px      :     1.690396
      py      :     1.524329
      dz2     :     0.006104  d :     0.026272
      dxz     :     0.002857
      dyz     :     0.007475
      dx2y2   :     0.005078
      dxy     :     0.004758
  3 O s       :     3.815740  s :     3.815740
      pz      :     1.629270  p :     4.830731
      px      :     1.372672
      py      :     1.828790
      dz2     :     0.005544  d :     0.023487
      dxz     :     0.009873
      dyz     :     0.004199
      dx2y2   :     0.002460
      dxy     :     0.001411
  4 P s       :     4.914938  s :     4.914938
      pz      :     2.640005  p :     7.923773
      px      :     2.631955
      py      :     2.651813
      dz2     :     0.128732  d :     0.738823
      dxz     :     0.165430
      dyz     :     0.148733
      dx2y2   :     0.184244
      dxy     :     0.111684
  5 O s       :     3.821611  s :     3.821611
      pz      :     1.605575  p :     4.820300
      px      :     1.690396
      py      :     1.524329
      dz2     :     0.006104  d :     0.026272
      dxz     :     0.002857
      dyz     :     0.007475
      dx2y2   :     0.005078
      dxy     :     0.004758
  6 O s       :     3.816236  s :     3.816236
      pz      :     1.754795  p :     4.863287
      px      :     1.604949
      py      :     1.503543
      dz2     :     0.003628  d :     0.026540
      dxz     :     0.003819
      dyz     :     0.003878
      dx2y2   :     0.011110
      dxy     :     0.004105
  7 O s       :     3.809802  s :     3.809802
      pz      :     1.694632  p :     4.839614
      px      :     1.594447
      py      :     1.550535
      dz2     :     0.006230  d :     0.025830
      dxz     :     0.004827
      dyz     :     0.002359
      dx2y2   :     0.008100
      dxy     :     0.004315
  8 O s       :     3.816236  s :     3.816236
      pz      :     1.754795  p :     4.863287
      px      :     1.604949
      py      :     1.503543
      dz2     :     0.003628  d :     0.026540
      dxz     :     0.003819
      dyz     :     0.003878
      dx2y2   :     0.011110
      dxy     :     0.004105
  9 H s       :     0.526623  s :     0.526623
 10 H s       :     0.511371  s :     0.511371
 11 H s       :     0.526623  s :     0.526623
 12 H s       :     0.511371  s :     0.511371


                     *******************************
                     * LOEWDIN POPULATION ANALYSIS *
                     *******************************

----------------------
LOEWDIN ATOMIC CHARGES
----------------------
   0 O :   -0.422495
   1 P :    0.901570
   2 O :   -0.534750
   3 O :   -0.405759
   4 P :    0.901570
   5 O :   -0.534750
   6 O :   -0.439554
   7 O :   -0.422495
   8 O :   -0.439554
   9 H :    0.352122
  10 H :    0.345986
  11 H :    0.352122
  12 H :    0.345986

-------------------------------
LOEWDIN REDUCED ORBITAL CHARGES
-------------------------------
  0 O s       :     3.530205  s :     3.530205
      pz      :     1.709930  p :     4.854240
      px      :     1.606910
      py      :     1.537400
      dz2     :     0.007606  d :     0.038050
      dxz     :     0.009906
      dyz     :     0.003028
      dx2y2   :     0.011647
      dxy     :     0.005863
  1 P s       :     4.822989  s :     4.822989
      pz      :     2.741483  p :     8.205089
      px      :     2.697293
      py      :     2.766314
      dz2     :     0.169755  d :     1.070351
      dxz     :     0.255582
      dyz     :     0.225446
      dx2y2   :     0.276059
      dxy     :     0.143510
  2 O s       :     3.600958  s :     3.600958
      pz      :     1.636650  p :     4.894658
      px      :     1.674681
      py      :     1.583327
      dz2     :     0.006525  d :     0.039134
      dxz     :     0.003317
      dyz     :     0.015457
      dx2y2   :     0.008729
      dxy     :     0.005107
  3 O s       :     3.522682  s :     3.522682
      pz      :     1.646803  p :     4.843134
      px      :     1.394901
      py      :     1.801431
      dz2     :     0.006263  d :     0.039943
      dxz     :     0.019887
      dyz     :     0.004413
      dx2y2   :     0.006097
      dxy     :     0.003283
  4 P s       :     4.822989  s :     4.822989
      pz      :     2.741483  p :     8.205089
      px      :     2.697293
      py      :     2.766314
      dz2     :     0.169755  d :     1.070351
      dxz     :     0.255582
      dyz     :     0.225446
      dx2y2   :     0.276059
      dxy     :     0.143510
  5 O s       :     3.600958  s :     3.600958
      pz      :     1.636650  p :     4.894658
      px      :     1.674681
      py      :     1.583327
      dz2     :     0.006525  d :     0.039134
      dxz     :     0.003317
      dyz     :     0.015457
      dx2y2   :     0.008729
      dxy     :     0.005107
  6 O s       :     3.533819  s :     3.533819
      pz      :     1.744247  p :     4.866826
      px      :     1.578169
      py      :     1.544409
      dz2     :     0.004439  d :     0.038909
      dxz     :     0.004888
      dyz     :     0.006655
      dx2y2   :     0.017135
      dxy     :     0.005792
  7 O s       :     3.530205  s :     3.530205
      pz      :     1.709930  p :     4.854240
      px      :     1.606910
      py      :     1.537400
      dz2     :     0.007606  d :     0.038050
      dxz     :     0.009906
      dyz     :     0.003028
      dx2y2   :     0.011647
      dxy     :     0.005863
  8 O s       :     3.533819  s :     3.533819
      pz      :     1.744247  p :     4.866826
      px      :     1.578169
      py      :     1.544410
      dz2     :     0.004439  d :     0.038909
      dxz     :     0.004888
      dyz     :     0.006655
      dx2y2   :     0.017135
      dxy     :     0.005792
  9 H s       :     0.647878  s :     0.647878
 10 H s       :     0.654014  s :     0.654014
 11 H s       :     0.647878  s :     0.647878
 12 H s       :     0.654014  s :     0.654014


                      *****************************
                      * MAYER POPULATION ANALYSIS *
                      *****************************

  NA   - Mulliken gross atomic population
  ZA   - Total nuclear charge
  QA   - Mulliken gross atomic charge
  VA   - Mayer's total valence
  BVA  - Mayer's bonded valence
  FA   - Mayer's free valence

  ATOM       NA         ZA         QA         VA         BVA        FA
  0 O      8.6752     8.0000    -0.6752     1.9333     1.9333    -0.0000
  1 P     13.5775    15.0000     1.4225     5.1036     5.1036    -0.0000
  2 O      8.6682     8.0000    -0.6682     1.9886     1.9886    -0.0000
  3 O      8.6700     8.0000    -0.6700     1.9633     1.9633    -0.0000
  4 P     13.5775    15.0000     1.4225     5.1036     5.1036     0.0000
  5 O      8.6682     8.0000    -0.6682     1.9886     1.9886    -0.0000
  6 O      8.7061     8.0000    -0.7061     1.9036     1.9036    -0.0000
  7 O      8.6752     8.0000    -0.6752     1.9333     1.9333    -0.0000
  8 O      8.7061     8.0000    -0.7061     1.9036     1.9036    -0.0000
  9 H      0.5266     1.0000     0.4734     0.7621     0.7621    -0.0000
 10 H      0.5114     1.0000     0.4886     0.7788     0.7788    -0.0000
 11 H      0.5266     1.0000     0.4734     0.7621     0.7621    -0.0000
 12 H      0.5114     1.0000     0.4886     0.7788     0.7788    -0.0000

  Mayer bond orders larger than 0.100000
B(  0-O ,  1-P ) :   1.1308 B(  0-O ,  9-H ) :   0.7347 B(  1-P ,  2-O ) :   1.7588 
B(  1-P ,  3-O ) :   0.9168 B(  1-P ,  8-O ) :   1.1637 B(  2-O , 10-H ) :   0.1007 
B(  3-O ,  4-P ) :   0.9168 B(  4-P ,  5-O ) :   1.7588 B(  4-P ,  6-O ) :   1.1637 
B(  4-P ,  7-O ) :   1.1308 B(  5-O , 12-H ) :   0.1007 B(  6-O , 10-H ) :   0.6466 
B(  7-O , 11-H ) :   0.7347 B(  8-O , 12-H ) :   0.6466 

-------
TIMINGS
-------

Total SCF time: 0 days 0 hours 1 min 54 sec 

Total time                  ....     114.846 sec
Sum of individual times     ....     104.706 sec  ( 91.2%)

Fock matrix formation       ....      86.148 sec  ( 75.0%)
  Split-RI-J                ....       7.933 sec  (  9.2% of F)
  Chain of spheres X        ....      32.769 sec  ( 38.0% of F)
  XC integration            ....      23.891 sec  ( 27.7% of F)
    Basis function eval.    ....       3.752 sec  ( 15.7% of XC)
    Density eval.           ....       2.345 sec  (  9.8% of XC)
    XC-Functional eval.     ....       1.545 sec  (  6.5% of XC)
    XC-Potential eval.      ....       1.321 sec  (  5.5% of XC)
Diagonalization             ....       2.697 sec  (  2.3%)
Density matrix formation    ....       0.174 sec  (  0.2%)
Population analysis         ....       0.527 sec  (  0.5%)
Initial guess               ....       0.029 sec  (  0.0%)
Orbital Transformation      ....       0.000 sec  (  0.0%)
Orbital Orthonormalization  ....       0.000 sec  (  0.0%)
DIIS solution               ....       4.044 sec  (  3.5%)
SOSCF solution              ....       1.720 sec  (  1.5%)
Grid generation             ....       9.366 sec  (  8.2%)

Maximum memory used throughout the entire SCF-calculation: 54.9 MB


-------------------------------------------------------------------------------
                          DFT DISPERSION CORRECTION                            
                                                                               
                              DFTD3 V3.1  Rev 1                                
                          USING Becke-Johnson damping                          
-------------------------------------------------------------------------------
The PBEh-3c composite method is recognized
Using three-body term ABC
Active option DFTDOPT                   ...         4   

molecular C6(AA) [au] = 2915.759074 


            DFT-D V3
 parameters
 s6 scaling factor         :     1.0000 
 a1 scaling factor         :     0.4860 
 s8 scaling factor         :     0.0000 
 a2 scaling factor         :     4.5000 
 Damping factor alpha9(ATM):    16.0000 
 ad hoc parameters k1-k3   :    16.0000     1.3333    -4.0000 

 Edisp/kcal,au: -4.785731113797  -0.007626547170 
 E6   /kcal   :  -4.801865144 
 E8   /kcal   :  -0.000000000 
 E6(ABC)      :   0.016134030 
 % E8         :   0.000000000 
 % E6(ABC)    :  -0.337127806 

-------------------------   ----------------
Dispersion correction           -0.007626547
-------------------------   ----------------

------------------   -----------------
gCP correction             0.045650351
------------------   -----------------

-------------------------   --------------------
FINAL SINGLE POINT ENERGY     -1210.008771850835
-------------------------   --------------------


                            ***************************************
                            *     ORCA property calculations      *
                            ***************************************

                                    ---------------------
                                    Active property flags
                                    ---------------------
   (+) Dipole Moment


------------------------------------------------------------------------------
                       ORCA ELECTRIC PROPERTIES CALCULATION
------------------------------------------------------------------------------

Dipole Moment Calculation                       ... on
Quadrupole Moment Calculation                   ... off
Polarizability Calculation                      ... off
GBWName                                         ... pbeh-3c.gbw
Electron density                                ... pbeh-3c.scfp
The origin for moment calculation is the CENTER OF MASS  = (-0.000000,  0.000000  0.056213)

-------------
DIPOLE MOMENT
-------------
                                X             Y             Z
Electronic contribution:      0.00000      -0.00000      -0.54405
Nuclear contribution   :     -0.00000       0.00000      -0.38681
                        -----------------------------------------
Total Dipole Moment    :      0.00000      -0.00000      -0.93086
                        -----------------------------------------
Magnitude (a.u.)       :      0.93086
Magnitude (Debye)      :      2.36605



--------------------
Rotational spectrum 
--------------------
 
Rotational constants in cm-1:     0.080454     0.030424     0.029076 
Rotational constants in MHz :  2411.951771   912.101062   871.672183 

 Dipole components along the rotational axes: 
x,y,z [a.u.] :     0.000000    -0.000000    -0.930857 
x,y,z [Debye]:     0.000000    -0.000000    -2.366051 

 

Timings for individual modules:

Sum of individual times         ...      119.286 sec (=   1.988 min)
GTO integral calculation        ...        3.522 sec (=   0.059 min)   3.0 %
SCF iterations                  ...      115.764 sec (=   1.929 min)  97.0 %
                             ****ORCA TERMINATED NORMALLY****
TOTAL RUN TIME: 0 days 0 hours 2 minutes 1 seconds 967 msec
