
                                 *****************
                                 * O   R   C   A *
                                 *****************

                                            #,                                       
                                            ###                                      
                                            ####                                     
                                            #####                                    
                                            ######                                   
                                           ########,                                 
                                     ,,################,,,,,                         
                               ,,#################################,,                 
                          ,,##########################################,,             
                       ,#########################################, ''#####,          
                    ,#############################################,,   '####,        
                  ,##################################################,,,,####,       
                ,###########''''           ''''###############################       
              ,#####''   ,,,,##########,,,,          '''####'''          '####       
            ,##' ,,,,###########################,,,                        '##       
           ' ,,###''''                  '''############,,,                           
         ,,##''                                '''############,,,,        ,,,,,,###''
      ,#''                                            '''#######################'''  
     '                                                          ''''####''''         
             ,#######,   #######,   ,#######,      ##                                
            ,#'     '#,  ##    ##  ,#'     '#,    #''#        ######   ,####,        
            ##       ##  ##   ,#'  ##            #'  '#       #        #'  '#        
            ##       ##  #######   ##           ,######,      #####,   #    #        
            '#,     ,#'  ##    ##  '#,     ,#' ,#      #,         ##   #,  ,#        
             '#######'   ##     ##  '#######'  #'      '#     #####' # '####'        



                  #######################################################
                  #                        -***-                        #
                  #          Department of theory and spectroscopy      #
                  #    Directorship and core code : Frank Neese         #
                  #        Max Planck Institute fuer Kohlenforschung    #
                  #                Kaiser Wilhelm Platz 1               #
                  #                 D-45470 Muelheim/Ruhr               #
                  #                      Germany                        #
                  #                                                     #
                  #                  All rights reserved                #
                  #                        -***-                        #
                  #######################################################


                         Program Version 5.0.3 -  RELEASE  -


 With contributions from (in alphabetic order):
   Daniel Aravena         : Magnetic Suceptibility
   Michael Atanasov       : Ab Initio Ligand Field Theory (pilot matlab implementation)
   Alexander A. Auer      : GIAO ZORA, VPT2 properties, NMR spectrum
   Ute Becker             : Parallelization
   Giovanni Bistoni       : ED, misc. LED, open-shell LED, HFLD
   Martin Brehm           : Molecular dynamics
   Dmytro Bykov           : SCF Hessian
   Vijay G. Chilkuri      : MRCI spin determinant printing, contributions to CSF-ICE
   Dipayan Datta          : RHF DLPNO-CCSD density
   Achintya Kumar Dutta   : EOM-CC, STEOM-CC
   Dmitry Ganyushin       : Spin-Orbit,Spin-Spin,Magnetic field MRCI
   Miquel Garcia          : C-PCM and meta-GGA Hessian, CC/C-PCM, Gaussian charge scheme
   Yang Guo               : DLPNO-NEVPT2, F12-NEVPT2, CIM, IAO-localization
   Andreas Hansen         : Spin unrestricted coupled pair/coupled cluster methods
   Benjamin Helmich-Paris : MC-RPA, TRAH-SCF, COSX integrals
   Lee Huntington         : MR-EOM, pCC
   Robert Izsak           : Overlap fitted RIJCOSX, COSX-SCS-MP3, EOM
   Marcus Kettner         : VPT2
   Christian Kollmar      : KDIIS, OOCD, Brueckner-CCSD(T), CCSD density, CASPT2, CASPT2-K
   Simone Kossmann        : Meta GGA functionals, TD-DFT gradient, OOMP2, MP2 Hessian
   Martin Krupicka        : Initial AUTO-CI
   Lucas Lang             : DCDCAS
   Marvin Lechner         : AUTO-CI (C++ implementation), FIC-MRCC
   Dagmar Lenk            : GEPOL surface, SMD
   Dimitrios Liakos       : Extrapolation schemes; Compound Job, initial MDCI parallelization
   Dimitrios Manganas     : Further ROCIS development; embedding schemes
   Dimitrios Pantazis     : SARC Basis sets
   Anastasios Papadopoulos: AUTO-CI, single reference methods and gradients
   Taras Petrenko         : DFT Hessian,TD-DFT gradient, ASA, ECA, R-Raman, ABS, FL, XAS/XES, NRVS
   Peter Pinski           : DLPNO-MP2, DLPNO-MP2 Gradient
   Christoph Reimann      : Effective Core Potentials
   Marius Retegan         : Local ZFS, SOC
   Christoph Riplinger    : Optimizer, TS searches, QM/MM, DLPNO-CCSD(T), (RO)-DLPNO pert. Triples
   Tobias Risthaus        : Range-separated hybrids, TD-DFT gradient, RPA, STAB
   Michael Roemelt        : Original ROCIS implementation
   Masaaki Saitow         : Open-shell DLPNO-CCSD energy and density
   Barbara Sandhoefer     : DKH picture change effects
   Avijit Sen             : IP-ROCIS
   Kantharuban Sivalingam : CASSCF convergence, NEVPT2, FIC-MRCI
   Bernardo de Souza      : ESD, SOC TD-DFT
   Georgi Stoychev        : AutoAux, RI-MP2 NMR, DLPNO-MP2 response
   Willem Van den Heuvel  : Paramagnetic NMR
   Boris Wezisla          : Elementary symmetry handling
   Frank Wennmohs         : Technical directorship


 We gratefully acknowledge several colleagues who have allowed us to
 interface, adapt or use parts of their codes:
   Stefan Grimme, W. Hujo, H. Kruse, P. Pracht,  : VdW corrections, initial TS optimization,
                  C. Bannwarth, S. Ehlert          DFT functionals, gCP, sTDA/sTD-DF
   Ed Valeev, F. Pavosevic, A. Kumar             : LibInt (2-el integral package), F12 methods
   Garnet Chan, S. Sharma, J. Yang, R. Olivares  : DMRG
   Ulf Ekstrom                                   : XCFun DFT Library
   Mihaly Kallay                                 : mrcc  (arbitrary order and MRCC methods)
   Jiri Pittner, Ondrej Demel                    : Mk-CCSD
   Frank Weinhold                                : gennbo (NPA and NBO analysis)
   Christopher J. Cramer and Donald G. Truhlar   : smd solvation model
   Lars Goerigk                                  : TD-DFT with DH, B97 family of functionals
   V. Asgeirsson, H. Jonsson                     : NEB implementation
   FAccTs GmbH                                   : IRC, NEB, NEB-TS, DLPNO-Multilevel, CI-OPT
                                                   MM, QMMM, 2- and 3-layer-ONIOM, Crystal-QMMM,
                                                   LR-CPCM, SF, NACMEs, symmetry and pop. for TD-DFT,
                                                   nearIR, NL-DFT gradient (VV10), updates on ESD,
                                                   ML-optimized integration grids
   S Lehtola, MJT Oliveira, MAL Marques          : LibXC Library
   Liviu Ungur et al                             : ANISO software


 Your calculation uses the libint2 library for the computation of 2-el integrals
 For citations please refer to: http://libint.valeyev.net

 Your ORCA version has been built with support for libXC version: 5.1.0
 For citations please refer to: https://tddft.org/programs/libxc/

 This ORCA versions uses:
   CBLAS   interface :  Fast vector & matrix operations
   LAPACKE interface :  Fast linear algebra routines
   SCALAPACK package :  Parallel linear algebra routines
   Shared memory     :  Shared parallel matrices
   BLAS/LAPACK       :  OpenBLAS 0.3.15  USE64BITINT DYNAMIC_ARCH NO_AFFINITY Haswell SINGLE_THREADED
        Core in use  :  Haswell
   Copyright (c) 2011-2014, The OpenBLAS Project




***************************************
The coordinates will be read from file: 104.xyz
***************************************


Your calculation utilizes the geometrical counterpoise correction gCP
Please cite in your paper:
H.Kruse, S. Grimme J.Chem.Phys., 136, (2012), 154101 
   

Your calculation utilizes the atom-pairwise dispersion correction
with the Becke-Johnson damping scheme (D3BJ)
Cite in your paper:
S.Grimme, S.Ehrlich, L.Goerigk, J Comput Chem, (2011), 32, 1456–1465 
S.Grimme, J.Antony, S.Ehrlich and H.Krieg, J.Chem.Phys., 132, (2010), 154104 
   

Your calculation employs the composite approach PBEh-3c.
Please cite in your paper:
S. Grimme, J. G. Brandenburg, C. Bannwarth, A. Hansen J.Chem.Phys., 143, (2015), 054107 
   

================================================================================

----- Orbital basis set information -----
Your calculation utilizes the basis: def2-mSVP

----- AuxJ basis set information -----
Your calculation utilizes the auxiliary basis: def2/J
   F. Weigend, Phys. Chem. Chem. Phys. 8, 1057 (2006).

================================================================================
                                        WARNINGS
                       Please study these warnings very carefully!
================================================================================


INFO   : the flag for use of the SHARK integral package has been found!

================================================================================
                                       INPUT FILE
================================================================================
NAME = pbeh-3c.inp
|  1> ! PBEh-3c def2/J TightSCF DefGrid3
|  2> 
|  3> %maxcore 60000
|  4> 
|  5> %pal
|  6> nprocs 4
|  7> end
|  8> 
|  9> *xyzfile 0 1 104.xyz
| 10> 
| 11>                          ****END OF INPUT****
================================================================================

                       ****************************
                       * Single Point Calculation *
                       ****************************

---------------------------------
CARTESIAN COORDINATES (ANGSTROEM)
---------------------------------
  O      0.219237    0.951515    0.000000
  C     -0.312039   -0.285478    0.000000
  O      0.314588   -1.306084    0.000000
  H      1.184370    0.855506    0.000000
  H     -1.406157   -0.215457    0.000000

----------------------------
CARTESIAN COORDINATES (A.U.)
----------------------------
  NO LB      ZA    FRAG     MASS         X           Y           Z
   0 O     8.0000    0    15.999    0.414298    1.798102    0.000000
   1 C     6.0000    0    12.011   -0.589668   -0.539476    0.000000
   2 O     8.0000    0    15.999    0.594485   -2.468142    0.000000
   3 H     1.0000    0     1.008    2.238136    1.616671    0.000000
   4 H     1.0000    0     1.008   -2.657251   -0.407155    0.000000

--------------------------------
INTERNAL COORDINATES (ANGSTROEM)
--------------------------------
 O      0   0   0     0.000000000000     0.00000000     0.00000000
 C      1   0   0     1.346255979715     0.00000000     0.00000000
 O      2   1   0     1.197621773059   125.20808905     0.00000000
 H      1   2   3     0.969896999003   107.56208824     0.00000000
 H      2   1   3     1.096356506806   109.58122290   180.00000085

---------------------------
INTERNAL COORDINATES (A.U.)
---------------------------
 O      0   0   0     0.000000000000     0.00000000     0.00000000
 C      1   0   0     2.544055107815     0.00000000     0.00000000
 O      2   1   0     2.263177163104   125.20808905     0.00000000
 H      1   2   3     1.832839706228   107.56208824     0.00000000
 H      2   1   3     2.071813543006   109.58122290   180.00000085

---------------------
BASIS SET INFORMATION
---------------------
There are 3 groups of distinct atoms

 Group   1 Type O   : 8s4p1d contracted to 4s2p1d pattern {5111/31/1}
 Group   2 Type C   : 8s4p1d contracted to 4s2p1d pattern {5111/31/1}
 Group   3 Type H   : 4s contracted to 2s pattern {31}

Atom   0O    basis set group =>   1
Atom   1C    basis set group =>   2
Atom   2O    basis set group =>   1
Atom   3H    basis set group =>   3
Atom   4H    basis set group =>   3
---------------------------------
AUXILIARY/J BASIS SET INFORMATION
---------------------------------
There are 3 groups of distinct atoms

 Group   1 Type O   : 12s5p4d2f1g contracted to 6s4p3d1f1g pattern {711111/2111/211/2/1}
 Group   2 Type C   : 12s5p4d2f1g contracted to 6s4p3d1f1g pattern {711111/2111/211/2/1}
 Group   3 Type H   : 5s2p1d contracted to 3s1p1d pattern {311/2/1}

Atom   0O    basis set group =>   1
Atom   1C    basis set group =>   2
Atom   2O    basis set group =>   1
Atom   3H    basis set group =>   3
Atom   4H    basis set group =>   3


           ************************************************************
           *        Program running with 4 parallel MPI-processes     *
           *              working on a common directory               *
           ************************************************************
------------------------------------------------------------------------------
                           ORCA GTO INTEGRAL CALCULATION
                           -- RI-GTO INTEGRALS CHOSEN --
------------------------------------------------------------------------------
------------------------------------------------------------------------------
                   ___                                                        
                  /   \      - P O W E R E D   B Y -                         
                 /     \                                                     
                 |  |  |   _    _      __       _____    __    __             
                 |  |  |  | |  | |    /  \     |  _  \  |  |  /  |          
                  \  \/   | |  | |   /    \    | | | |  |  | /  /          
                 / \  \   | |__| |  /  /\  \   | |_| |  |  |/  /          
                |  |  |   |  __  | /  /__\  \  |    /   |      \           
                |  |  |   | |  | | |   __   |  |    \   |  |\   \          
                \     /   | |  | | |  |  |  |  | |\  \  |  | \   \       
                 \___/    |_|  |_| |__|  |__|  |_| \__\ |__|  \__/        
                                                                              
                      - O R C A' S   B I G   F R I E N D -                    
                                      &                                       
                       - I N T E G R A L  F E E D E R -                       
                                                                              
 v1 FN, 2020, v2 2021                                                         
------------------------------------------------------------------------------


Reading SHARK input file pbeh-3c.SHARKINP.tmp ... ok
----------------------
SHARK INTEGRAL PACKAGE
----------------------

Number of atoms                             ...      5
Number of basis functions                   ...     49
Number of shells                            ...     25
Maximum angular momentum                    ...      2
Integral batch strategy                     ... SHARK/LIBINT Hybrid
RI-J (if used) integral strategy            ... SPLIT-RIJ (Revised 2003 algorithm where possible)
Printlevel                                  ...      1
Contraction scheme used                     ... SEGMENTED contraction
Coulomb Range Separation                    ... NOT USED
Exchange Range Separation                   ... NOT USED
Finite Nucleus Model                        ... NOT USED
Auxiliary Coulomb fitting basis             ... AVAILABLE
   # of basis functions in Aux-J            ...    169
   # of shells in Aux-J                     ...     55
   Maximum angular momentum in Aux-J        ...      4
Auxiliary J/K fitting basis                 ... NOT available
Auxiliary Correlation fitting basis         ... NOT available
Auxiliary 'external' fitting basis          ... NOT available
Integral threshold                          ...     2.500000e-11
Primitive cut-off                           ...     2.500000e-12
Primitive pair pre-selection threshold      ...     2.500000e-12

Calculating pre-screening integrals         ... done (  0.0 sec) Dimension = 25
Organizing shell pair data                  ... done (  0.0 sec)
Shell pair information
Total number of shell pairs                 ...       325
Shell pairs after pre-screening             ...       318
Total number of primitive shell pairs       ...      1173
Primitive shell pairs kept                  ...       958
          la=0 lb=0:    129 shell pairs
          la=1 lb=0:     96 shell pairs
          la=1 lb=1:     21 shell pairs
          la=2 lb=0:     48 shell pairs
          la=2 lb=1:     18 shell pairs
          la=2 lb=2:      6 shell pairs

Calculating one electron integrals          ... done (  0.0 sec)
Calculating RI/J V-Matrix + Cholesky decomp.... done (  0.0 sec)
Calculating Nuclear repulsion               ... done (  0.0 sec) ENN=     70.212253455568 Eh

SHARK setup successfully completed in   0.2 seconds

Maximum memory used throughout the entire GTOINT-calculation: 9.0 MB


           ************************************************************
           *        Program running with 4 parallel MPI-processes     *
           *              working on a common directory               *
           ************************************************************
-------------------------------------------------------------------------------
                                 ORCA SCF
-------------------------------------------------------------------------------

------------
SCF SETTINGS
------------
Hamiltonian:
 Density Functional     Method          .... DFT(GTOs)
 Exchange Functional    Exchange        .... PBE
   PBE kappa parameter   XKappa         ....  1.024500
   PBE mue parameter    XMuePBE         ....  0.123457
 Correlation Functional Correlation     .... PBE
   PBE beta parameter  CBetaPBE         ....  0.030000
 LDA part of GGA corr.  LDAOpt          .... PW91-LDA
 Gradients option       PostSCFGGA      .... off
 Hybrid DFT is turned on
   Fraction HF Exchange ScalHFX         ....  0.420000
   Scaling of DF-GGA-X  ScalDFX         ....  0.580000
   Scaling of DF-GGA-C  ScalDFC         ....  1.000000
   Scaling of DF-LDA-C  ScalLDAC        ....  1.000000
   Perturbative correction              ....  0.000000
   Density functional embedding theory  .... OFF
 RI-approximation to the Coulomb term is turned on
   Number of AuxJ basis functions       .... 169
   RIJ-ON(X) (HFX calculated with O(N)) .... on
   Number of AuxJ basis functions       .... 169
   RIJ-COSX (HFX calculated with COS-X)).... on


General Settings:
 Integral files         IntName         .... pbeh-3c
 Hartree-Fock type      HFTyp           .... RHF
 Total Charge           Charge          ....    0
 Multiplicity           Mult            ....    1
 Number of Electrons    NEL             ....   24
 Basis Dimension        Dim             ....   49
 Nuclear Repulsion      ENuc            ....     70.2122534556 Eh

Convergence Acceleration:
 DIIS                   CNVDIIS         .... on
   Start iteration      DIISMaxIt       ....    12
   Startup error        DIISStart       ....  0.200000
   # of expansion vecs  DIISMaxEq       ....     5
   Bias factor          DIISBfac        ....   1.050
   Max. coefficient     DIISMaxC        ....  10.000
 Trust-Rad. Augm. Hess. CNVTRAH         .... auto
   Auto Start mean grad. ratio tolernc. ....  1.125000
   Auto Start start iteration           ....    20
   Auto Start num. interpolation iter.  ....    10
   Max. Number of Micro iterations      ....    16
   Max. Number of Macro iterations      .... Maxiter - #DIIS iter
   Number of Davidson start vectors     ....     2
   Converg. threshold I  (grad. norm)   ....   1.000e-05
   Converg. threshold II (energy diff.) ....   1.000e-08
   Grad. Scal. Fac. for Micro threshold ....   0.100
   Minimum threshold for Micro iter.    ....   0.010
   NR start threshold (gradient norm)   ....   0.001
   Initial trust radius                 ....   0.400
   Minimum AH scaling param. (alpha)    ....   1.000
   Maximum AH scaling param. (alpha)    .... 1000.000
   Orbital update algorithm             .... Taylor
   White noise on init. David. guess    .... on
   Maximum white noise                  ....   0.010
   Quad. conv. algorithm                .... NR
   COSX micro iterations for RIJONX calc.... off
 SOSCF                  CNVSOSCF        .... on
   Start iteration      SOSCFMaxIt      ....   150
   Startup grad/error   SOSCFStart      ....  0.003300
 Level Shifting         CNVShift        .... on
   Level shift para.    LevelShift      ....    0.2500
   Turn off err/grad.   ShiftErr        ....    0.0010
 Zerner damping         CNVZerner       .... off
 Static damping         CNVDamp         .... on
   Fraction old density DampFac         ....    0.7000
   Max. Damping (<1)    DampMax         ....    0.9800
   Min. Damping (>=0)   DampMin         ....    0.0000
   Turn off err/grad.   DampErr         ....    0.1000
 Fernandez-Rico         CNVRico         .... off

SCF Procedure:
 Maximum # iterations   MaxIter         ....   125
 SCF integral mode      SCFMode         .... Direct
   Integral package                     .... SHARK and LIBINT hybrid scheme
 Reset frequency        DirectResetFreq ....    20
 Integral Threshold     Thresh          ....  2.500e-11 Eh
 Primitive CutOff       TCut            ....  2.500e-12 Eh

Convergence Tolerance:
 Convergence Check Mode ConvCheckMode   .... Total+1el-Energy
 Convergence forced     ConvForced      .... 0
 Energy Change          TolE            ....  1.000e-08 Eh
 1-El. energy change                    ....  1.000e-05 Eh
 Orbital Gradient       TolG            ....  1.000e-05
 Orbital Rotation angle TolX            ....  1.000e-05
 DIIS Error             TolErr          ....  5.000e-07


Diagonalization of the overlap matrix:
Smallest eigenvalue                        ... 1.823e-02
Time for diagonalization                   ...    0.001 sec
Threshold for overlap eigenvalues          ... 1.000e-08
Number of eigenvalues below threshold      ... 0
Time for construction of square roots      ...    0.003 sec
Total time needed                          ...    0.005 sec

--------------------------------
INITIAL GUESS: MINIMAL BASIS EHT
--------------------------------
The minimal basis has 17 functions
EHT matrix was diagonalized
Basis set overlap was calculated now projecting the orbitals
Using GuessMode=FMatrix for the initial guess
C*T matrix was formed
Effective Fockian was calculated
Effective Fockian was diagonalized
Initial density was built
                      ------------------
                      INITIAL GUESS DONE
                      ------------------
-------------------
DFT GRID GENERATION
-------------------

General Integration Accuracy     IntAcc      ... 4.959
Radial Grid Type                 RadialGrid  ... OptM3 with GC (2021)
Angular Grid (max. ang.)         AngularGrid ... 6 (Lebedev-590)
Angular grid pruning method      GridPruning ... 4 (adaptive)
Weight generation scheme         WeightScheme... Becke
Basis function cutoff            BFCut       ... 1.0000e-11
Integration weight cutoff        WCut        ... 1.0000e-14
Angular grids for H and He will be reduced by one unit
Partially contracted basis set               ... off
Rotationally invariant grid construction     ... off

Total number of grid points                  ...    61581
Total number of batches                      ...      965
Average number of points per batch           ...       63
Average number of grid points per atom       ...    12316
Time for grid setup =    0.904 sec

--------------------
COSX GRID GENERATION
--------------------

GRIDX 1
-------
General Integration Accuracy     IntAcc      ... 4.020
Radial Grid Type                 RadialGrid  ... OptM3 with GC (2021)
Angular Grid (max. ang.)         AngularGrid ... 2 (Lebedev-110)
Angular grid pruning method      GridPruning ... 4 (adaptive)
Weight generation scheme         WeightScheme... Becke
Basis function cutoff            BFCut       ... 1.0000e-11
Integration weight cutoff        WCut        ... 1.0000e-14
Angular grids for H and He will be reduced by one unit
Partially contracted basis set               ... on
Rotationally invariant grid construction     ... off

Total number of grid points                  ...     7204
Total number of batches                      ...      115
Average number of points per batch           ...       62
Average number of grid points per atom       ...     1441
UseSFitting                                  ... on

GRIDX 2
-------
General Integration Accuracy     IntAcc      ... 4.338
Radial Grid Type                 RadialGrid  ... OptM3 with GC (2021)
Angular Grid (max. ang.)         AngularGrid ... 3 (Lebedev-194)
Angular grid pruning method      GridPruning ... 4 (adaptive)
Weight generation scheme         WeightScheme... Becke
Basis function cutoff            BFCut       ... 1.0000e-11
Integration weight cutoff        WCut        ... 1.0000e-14
Angular grids for H and He will be reduced by one unit
Partially contracted basis set               ... on
Rotationally invariant grid construction     ... off

Total number of grid points                  ...    15982
Total number of batches                      ...      252
Average number of points per batch           ...       63
Average number of grid points per atom       ...     3196
UseSFitting                                  ... on

GRIDX 3
-------
General Integration Accuracy     IntAcc      ... 4.871
Radial Grid Type                 RadialGrid  ... OptM3 with GC (2021)
Angular Grid (max. ang.)         AngularGrid ... 4 (Lebedev-302)
Angular grid pruning method      GridPruning ... 4 (adaptive)
Weight generation scheme         WeightScheme... Becke
Basis function cutoff            BFCut       ... 1.0000e-11
Integration weight cutoff        WCut        ... 1.0000e-14
Angular grids for H and He will be reduced by one unit
Partially contracted basis set               ... on
Rotationally invariant grid construction     ... off

Total number of grid points                  ...    30193
Total number of batches                      ...      474
Average number of points per batch           ...       63
Average number of grid points per atom       ...     6039
UseSFitting                                  ... on

Time for X-Grid setup             =    0.432 sec

--------------
SCF ITERATIONS
--------------
ITER       Energy         Delta-E        Max-DP      RMS-DP      [F,P]     Damp
               ***  Starting incremental Fock matrix formation  ***
  0   -188.6305562949   0.000000000000 0.18078110  0.01192845  0.5217317 0.7000
  1   -188.9239966026  -0.293440307653 0.10265279  0.00647965  0.2586528 0.7000
                               ***Turning on DIIS***
  2   -189.0584361738  -0.134439571199 0.04044316  0.00321190  0.1819407 0.7000
  3   -189.1495140928  -0.091077919001 0.02994307  0.00203859  0.1271860 0.7000
  4   -189.2150037547  -0.065489661931 0.06994729  0.00492241  0.0884086 0.0000
  5   -189.3710623009  -0.156058546170 0.01094576  0.00063081  0.0125246 0.0000
  6   -189.3713387804  -0.000276479501 0.00307535  0.00019159  0.0062001 0.0000
                      *** Initiating the SOSCF procedure ***
                           *** Shutting down DIIS ***
                      *** Re-Reading the Fockian *** 
                      *** Removing any level shift *** 
ITER      Energy       Delta-E        Grad      Rot      Max-DP    RMS-DP
  7   -189.37141118  -0.0000724031  0.000815  0.000815  0.001692  0.000081
               *** Restarting incremental Fock matrix formation ***
  8   -189.37141228  -0.0000010955  0.000366  0.000542  0.001208  0.000077
  9   -189.37141206   0.0000002183  0.000716  0.000745  0.000884  0.000038
 10   -189.37141449  -0.0000024247  0.000024  0.000049  0.000073  0.000006
 11   -189.37141449  -0.0000000079  0.000021  0.000021  0.000042  0.000002
 12   -189.37141450  -0.0000000026  0.000007  0.000008  0.000014  0.000001
                  ***Gradient check signals convergence***
              ***Rediagonalizing the Fockian in SOSCF/NRSCF***

               *****************************************************
               *                     SUCCESS                       *
               *           SCF CONVERGED AFTER  13 CYCLES          *
               *****************************************************

Old exchange energy                            =     -9.379707156 Eh
New exchange energy                            =     -9.379706499 Eh
Exchange energy change after final integration =      0.000000657 Eh
Total energy after final integration           =   -189.371413839 Eh
Final COS-X integration done in                =     0.399 sec

----------------
TOTAL SCF ENERGY
----------------

Total Energy       :         -189.37141384 Eh           -5153.05815 eV

Components:
Nuclear Repulsion  :           70.21225346 Eh            1910.57255 eV
Electronic Energy  :         -259.58366729 Eh           -7063.63070 eV
One Electron Energy:         -398.28798273 Eh          -10837.96700 eV
Two Electron Energy:          138.70431544 Eh            3774.33631 eV
Max COSX asymmetry :            0.00000045 Eh               0.00001 eV

Virial components:
Potential Energy   :         -377.52551529 Eh          -10272.99154 eV
Kinetic Energy     :          188.15410145 Eh            5119.93339 eV
Virial Ratio       :            2.00646976


DFT components:
N(Alpha)           :       11.999999934779 electrons
N(Beta)            :       11.999999934779 electrons
N(Total)           :       23.999999869559 electrons
E(X)               :      -12.507958998342 Eh       
E(C)               :       -1.075562811968 Eh       
E(XC)              :      -13.583521810310 Eh       
DFET-embed. en.    :        0.000000000000 Eh       

---------------
SCF CONVERGENCE
---------------

  Last Energy change         ...   -5.7059e-10  Tolerance :   1.0000e-08
  Last MAX-Density change    ...    1.2212e-15  Tolerance :   1.0000e-07
  Last RMS-Density change    ...    5.4960e-17  Tolerance :   5.0000e-09
  Last Orbital Gradient      ...    1.1872e-06  Tolerance :   1.0000e-05
  Last Orbital Rotation      ...    8.5018e-07  Tolerance :   1.0000e-05

             **** THE GBW FILE WAS UPDATED (pbeh-3c.gbw) ****
             **** DENSITY pbeh-3c.scfp WAS UPDATED ****
             **** ENERGY FILE WAS UPDATED (pbeh-3c.en.tmp) ****
             **** THE GBW FILE WAS UPDATED (pbeh-3c.gbw) ****
             **** DENSITY pbeh-3c.scfp WAS UPDATED ****
----------------
ORBITAL ENERGIES
----------------

  NO   OCC          E(Eh)            E(eV) 
   0   2.0000     -19.555175      -532.1234 
   1   2.0000     -19.500782      -530.6433 
   2   2.0000     -10.588616      -288.1309 
   3   2.0000      -1.231075       -33.4993 
   4   2.0000      -1.140873       -31.0447 
   5   2.0000      -0.745884       -20.2965 
   6   2.0000      -0.591658       -16.0998 
   7   2.0000      -0.564002       -15.3473 
   8   2.0000      -0.516169       -14.0457 
   9   2.0000      -0.473417       -12.8823 
  10   2.0000      -0.389947       -10.6110 
  11   2.0000      -0.352614        -9.5951 
  12   0.0000       0.036061         0.9813 
  13   0.0000       0.124480         3.3873 
  14   0.0000       0.192560         5.2398 
  15   0.0000       0.300298         8.1715 
  16   0.0000       0.321693         8.7537 
  17   0.0000       0.494526        13.4567 
  18   0.0000       0.543800        14.7975 
  19   0.0000       0.657060        17.8795 
  20   0.0000       0.742939        20.2164 
  21   0.0000       0.860715        23.4212 
  22   0.0000       0.933247        25.3949 
  23   0.0000       0.951174        25.8828 
  24   0.0000       0.997113        27.1328 
  25   0.0000       1.097215        29.8567 
  26   0.0000       1.099538        29.9199 
  27   0.0000       1.164623        31.6910 
  28   0.0000       1.228341        33.4249 
  29   0.0000       1.434801        39.0429 
  30   0.0000       1.518446        41.3190 
  31   0.0000       1.677186        45.6386 
  32   0.0000       1.789980        48.7078 
  33   0.0000       1.859097        50.5886 
  34   0.0000       1.864486        50.7353 
  35   0.0000       1.895207        51.5712 
  36   0.0000       1.910163        51.9782 
  37   0.0000       1.991861        54.2013 
  38   0.0000       2.177302        59.2474 
  39   0.0000       2.381199        64.7957 
  40   0.0000       2.455952        66.8298 
  41   0.0000       2.645679        71.9926 
  42   0.0000       2.709173        73.7203 
  43   0.0000       2.792793        75.9957 
  44   0.0000       2.939801        79.9961 
  45   0.0000       3.070233        83.5453 
  46   0.0000      13.806988       375.7072 
  47   0.0000      25.454073       692.6405 
  48   0.0000      25.592378       696.4040 

                    ********************************
                    * MULLIKEN POPULATION ANALYSIS *
                    ********************************

-----------------------
MULLIKEN ATOMIC CHARGES
-----------------------
   0 O :   -0.566898
   1 C :    0.298347
   2 O :   -0.365820
   3 H :    0.441644
   4 H :    0.192726
Sum of atomic charges:    0.0000000

--------------------------------
MULLIKEN REDUCED ORBITAL CHARGES
--------------------------------
  0 O s       :     3.794730  s :     3.794730
      pz      :     1.807048  p :     4.741753
      px      :     1.389776
      py      :     1.544928
      dz2     :     0.004937  d :     0.030415
      dxz     :     0.000059
      dyz     :     0.005529
      dx2y2   :     0.014915
      dxy     :     0.004974
  1 C s       :     3.066286  s :     3.066286
      pz      :     0.740477  p :     2.503336
      px      :     0.990519
      py      :     0.772340
      dz2     :     0.007345  d :     0.132031
      dxz     :     0.004784
      dyz     :     0.027353
      dx2y2   :     0.054535
      dxy     :     0.038016
  2 O s       :     3.761082  s :     3.761082
      pz      :     1.402096  p :     4.572779
      px      :     1.667260
      py      :     1.503423
      dz2     :     0.002686  d :     0.031959
      dxz     :     0.003295
      dyz     :     0.009359
      dx2y2   :     0.008322
      dxy     :     0.008296
  3 H s       :     0.558356  s :     0.558356
  4 H s       :     0.807274  s :     0.807274


                     *******************************
                     * LOEWDIN POPULATION ANALYSIS *
                     *******************************

----------------------
LOEWDIN ATOMIC CHARGES
----------------------
   0 O :   -0.304337
   1 C :    0.092127
   2 O :   -0.216080
   3 H :    0.331199
   4 H :    0.097091

-------------------------------
LOEWDIN REDUCED ORBITAL CHARGES
-------------------------------
  0 O s       :     3.509426  s :     3.509426
      pz      :     1.779602  p :     4.741418
      px      :     1.388076
      py      :     1.573740
      dz2     :     0.007717  d :     0.053493
      dxz     :     0.000813
      dyz     :     0.007428
      dx2y2   :     0.025573
      dxy     :     0.011962
  1 C s       :     2.892827  s :     2.892827
      pz      :     0.749677  p :     2.724585
      px      :     1.028228
      py      :     0.946681
      dz2     :     0.017058  d :     0.290461
      dxz     :     0.007602
      dyz     :     0.056774
      dx2y2   :     0.123954
      dxy     :     0.085074
  2 O s       :     3.525573  s :     3.525573
      pz      :     1.382186  p :     4.632210
      px      :     1.694962
      py      :     1.555061
      dz2     :     0.006666  d :     0.058298
      dxz     :     0.004087
      dyz     :     0.011831
      dx2y2   :     0.015993
      dxy     :     0.019721
  3 H s       :     0.668801  s :     0.668801
  4 H s       :     0.902909  s :     0.902909


                      *****************************
                      * MAYER POPULATION ANALYSIS *
                      *****************************

  NA   - Mulliken gross atomic population
  ZA   - Total nuclear charge
  QA   - Mulliken gross atomic charge
  VA   - Mayer's total valence
  BVA  - Mayer's bonded valence
  FA   - Mayer's free valence

  ATOM       NA         ZA         QA         VA         BVA        FA
  0 O      8.5669     8.0000    -0.5669     2.0126     2.0126     0.0000
  1 C      5.7017     6.0000     0.2983     4.1025     4.1025     0.0000
  2 O      8.3658     8.0000    -0.3658     2.2157     2.2157     0.0000
  3 H      0.5584     1.0000     0.4416     0.7945     0.7945     0.0000
  4 H      0.8073     1.0000     0.1927     0.9106     0.9106     0.0000

  Mayer bond orders larger than 0.100000
B(  0-O ,  1-C ) :   1.1589 B(  0-O ,  3-H ) :   0.7591 B(  1-C ,  2-O ) :   2.0724 
B(  1-C ,  4-H ) :   0.8676 

-------
TIMINGS
-------

Total SCF time: 0 days 0 hours 0 min 11 sec 

Total time                  ....      11.035 sec
Sum of individual times     ....      10.209 sec  ( 92.5%)

Fock matrix formation       ....       8.573 sec  ( 77.7%)
  Split-RI-J                ....       0.740 sec  (  8.6% of F)
  Chain of spheres X        ....       2.938 sec  ( 34.3% of F)
  XC integration            ....       3.129 sec  ( 36.5% of F)
    Basis function eval.    ....       0.554 sec  ( 17.7% of XC)
    Density eval.           ....       0.407 sec  ( 13.0% of XC)
    XC-Functional eval.     ....       0.498 sec  ( 15.9% of XC)
    XC-Potential eval.      ....       0.179 sec  (  5.7% of XC)
Diagonalization             ....       0.026 sec  (  0.2%)
Density matrix formation    ....       0.002 sec  (  0.0%)
Population analysis         ....       0.138 sec  (  1.3%)
Initial guess               ....       0.002 sec  (  0.0%)
Orbital Transformation      ....       0.000 sec  (  0.0%)
Orbital Orthonormalization  ....       0.000 sec  (  0.0%)
DIIS solution               ....       0.082 sec  (  0.7%)
SOSCF solution              ....       0.051 sec  (  0.5%)
Grid generation             ....       1.336 sec  ( 12.1%)

Maximum memory used throughout the entire SCF-calculation: 45.1 MB


-------------------------------------------------------------------------------
                          DFT DISPERSION CORRECTION                            
                                                                               
                              DFTD3 V3.1  Rev 1                                
                          USING Becke-Johnson damping                          
-------------------------------------------------------------------------------
The PBEh-3c composite method is recognized
Using three-body term ABC
Active option DFTDOPT                   ...         4   

molecular C6(AA) [au] = 232.987905 


            DFT-D V3
 parameters
 s6 scaling factor         :     1.0000 
 a1 scaling factor         :     0.4860 
 s8 scaling factor         :     0.0000 
 a2 scaling factor         :     4.5000 
 Damping factor alpha9(ATM):    16.0000 
 ad hoc parameters k1-k3   :    16.0000     1.3333    -4.0000 

 Edisp/kcal,au: -0.627248292873  -0.000999583675 
 E6   /kcal   :  -0.627352313 
 E8   /kcal   :  -0.000000000 
 E6(ABC)      :   0.000104021 
 % E8         :   0.000000000 
 % E6(ABC)    :  -0.016583628 

-------------------------   ----------------
Dispersion correction           -0.000999584
-------------------------   ----------------

------------------   -----------------
gCP correction             0.013944460
------------------   -----------------

-------------------------   --------------------
FINAL SINGLE POINT ENERGY      -189.358468962329
-------------------------   --------------------


                            ***************************************
                            *     ORCA property calculations      *
                            ***************************************

                                    ---------------------
                                    Active property flags
                                    ---------------------
   (+) Dipole Moment


------------------------------------------------------------------------------
                       ORCA ELECTRIC PROPERTIES CALCULATION
------------------------------------------------------------------------------

Dipole Moment Calculation                       ... on
Quadrupole Moment Calculation                   ... off
Polarizability Calculation                      ... off
GBWName                                         ... pbeh-3c.gbw
Electron density                                ... pbeh-3c.scfp
The origin for moment calculation is the CENTER OF MASS  = ( 0.187606, -0.347212  0.000000)

-------------
DIPOLE MOMENT
-------------
                                X             Y             Z
Electronic contribution:      0.38223      -0.35529      -0.00000
Nuclear contribution   :     -0.38939       0.94542       0.00000
                        -----------------------------------------
Total Dipole Moment    :     -0.00716       0.59013      -0.00000
                        -----------------------------------------
Magnitude (a.u.)       :      0.59018
Magnitude (Debye)      :      1.50011



--------------------
Rotational spectrum 
--------------------
 
Rotational constants in cm-1:     2.603391     0.401499     0.347852 
Rotational constants in MHz : 78047.702113 12036.622369 10428.348356 

 Dipole components along the rotational axes: 
x,y,z [a.u.] :    -0.590132     0.007164    -0.000000 
x,y,z [Debye]:    -1.499995     0.018208    -0.000000 

 

Timings for individual modules:

Sum of individual times         ...       11.722 sec (=   0.195 min)
GTO integral calculation        ...        0.410 sec (=   0.007 min)   3.5 %
SCF iterations                  ...       11.312 sec (=   0.189 min)  96.5 %
                             ****ORCA TERMINATED NORMALLY****
TOTAL RUN TIME: 0 days 0 hours 0 minutes 12 seconds 873 msec
