
                                 *****************
                                 * O   R   C   A *
                                 *****************

                                            #,                                       
                                            ###                                      
                                            ####                                     
                                            #####                                    
                                            ######                                   
                                           ########,                                 
                                     ,,################,,,,,                         
                               ,,#################################,,                 
                          ,,##########################################,,             
                       ,#########################################, ''#####,          
                    ,#############################################,,   '####,        
                  ,##################################################,,,,####,       
                ,###########''''           ''''###############################       
              ,#####''   ,,,,##########,,,,          '''####'''          '####       
            ,##' ,,,,###########################,,,                        '##       
           ' ,,###''''                  '''############,,,                           
         ,,##''                                '''############,,,,        ,,,,,,###''
      ,#''                                            '''#######################'''  
     '                                                          ''''####''''         
             ,#######,   #######,   ,#######,      ##                                
            ,#'     '#,  ##    ##  ,#'     '#,    #''#        ######   ,####,        
            ##       ##  ##   ,#'  ##            #'  '#       #        #'  '#        
            ##       ##  #######   ##           ,######,      #####,   #    #        
            '#,     ,#'  ##    ##  '#,     ,#' ,#      #,         ##   #,  ,#        
             '#######'   ##     ##  '#######'  #'      '#     #####' # '####'        



                  #######################################################
                  #                        -***-                        #
                  #          Department of theory and spectroscopy      #
                  #    Directorship and core code : Frank Neese         #
                  #        Max Planck Institute fuer Kohlenforschung    #
                  #                Kaiser Wilhelm Platz 1               #
                  #                 D-45470 Muelheim/Ruhr               #
                  #                      Germany                        #
                  #                                                     #
                  #                  All rights reserved                #
                  #                        -***-                        #
                  #######################################################


                         Program Version 5.0.3 -  RELEASE  -


 With contributions from (in alphabetic order):
   Daniel Aravena         : Magnetic Suceptibility
   Michael Atanasov       : Ab Initio Ligand Field Theory (pilot matlab implementation)
   Alexander A. Auer      : GIAO ZORA, VPT2 properties, NMR spectrum
   Ute Becker             : Parallelization
   Giovanni Bistoni       : ED, misc. LED, open-shell LED, HFLD
   Martin Brehm           : Molecular dynamics
   Dmytro Bykov           : SCF Hessian
   Vijay G. Chilkuri      : MRCI spin determinant printing, contributions to CSF-ICE
   Dipayan Datta          : RHF DLPNO-CCSD density
   Achintya Kumar Dutta   : EOM-CC, STEOM-CC
   Dmitry Ganyushin       : Spin-Orbit,Spin-Spin,Magnetic field MRCI
   Miquel Garcia          : C-PCM and meta-GGA Hessian, CC/C-PCM, Gaussian charge scheme
   Yang Guo               : DLPNO-NEVPT2, F12-NEVPT2, CIM, IAO-localization
   Andreas Hansen         : Spin unrestricted coupled pair/coupled cluster methods
   Benjamin Helmich-Paris : MC-RPA, TRAH-SCF, COSX integrals
   Lee Huntington         : MR-EOM, pCC
   Robert Izsak           : Overlap fitted RIJCOSX, COSX-SCS-MP3, EOM
   Marcus Kettner         : VPT2
   Christian Kollmar      : KDIIS, OOCD, Brueckner-CCSD(T), CCSD density, CASPT2, CASPT2-K
   Simone Kossmann        : Meta GGA functionals, TD-DFT gradient, OOMP2, MP2 Hessian
   Martin Krupicka        : Initial AUTO-CI
   Lucas Lang             : DCDCAS
   Marvin Lechner         : AUTO-CI (C++ implementation), FIC-MRCC
   Dagmar Lenk            : GEPOL surface, SMD
   Dimitrios Liakos       : Extrapolation schemes; Compound Job, initial MDCI parallelization
   Dimitrios Manganas     : Further ROCIS development; embedding schemes
   Dimitrios Pantazis     : SARC Basis sets
   Anastasios Papadopoulos: AUTO-CI, single reference methods and gradients
   Taras Petrenko         : DFT Hessian,TD-DFT gradient, ASA, ECA, R-Raman, ABS, FL, XAS/XES, NRVS
   Peter Pinski           : DLPNO-MP2, DLPNO-MP2 Gradient
   Christoph Reimann      : Effective Core Potentials
   Marius Retegan         : Local ZFS, SOC
   Christoph Riplinger    : Optimizer, TS searches, QM/MM, DLPNO-CCSD(T), (RO)-DLPNO pert. Triples
   Tobias Risthaus        : Range-separated hybrids, TD-DFT gradient, RPA, STAB
   Michael Roemelt        : Original ROCIS implementation
   Masaaki Saitow         : Open-shell DLPNO-CCSD energy and density
   Barbara Sandhoefer     : DKH picture change effects
   Avijit Sen             : IP-ROCIS
   Kantharuban Sivalingam : CASSCF convergence, NEVPT2, FIC-MRCI
   Bernardo de Souza      : ESD, SOC TD-DFT
   Georgi Stoychev        : AutoAux, RI-MP2 NMR, DLPNO-MP2 response
   Willem Van den Heuvel  : Paramagnetic NMR
   Boris Wezisla          : Elementary symmetry handling
   Frank Wennmohs         : Technical directorship


 We gratefully acknowledge several colleagues who have allowed us to
 interface, adapt or use parts of their codes:
   Stefan Grimme, W. Hujo, H. Kruse, P. Pracht,  : VdW corrections, initial TS optimization,
                  C. Bannwarth, S. Ehlert          DFT functionals, gCP, sTDA/sTD-DF
   Ed Valeev, F. Pavosevic, A. Kumar             : LibInt (2-el integral package), F12 methods
   Garnet Chan, S. Sharma, J. Yang, R. Olivares  : DMRG
   Ulf Ekstrom                                   : XCFun DFT Library
   Mihaly Kallay                                 : mrcc  (arbitrary order and MRCC methods)
   Jiri Pittner, Ondrej Demel                    : Mk-CCSD
   Frank Weinhold                                : gennbo (NPA and NBO analysis)
   Christopher J. Cramer and Donald G. Truhlar   : smd solvation model
   Lars Goerigk                                  : TD-DFT with DH, B97 family of functionals
   V. Asgeirsson, H. Jonsson                     : NEB implementation
   FAccTs GmbH                                   : IRC, NEB, NEB-TS, DLPNO-Multilevel, CI-OPT
                                                   MM, QMMM, 2- and 3-layer-ONIOM, Crystal-QMMM,
                                                   LR-CPCM, SF, NACMEs, symmetry and pop. for TD-DFT,
                                                   nearIR, NL-DFT gradient (VV10), updates on ESD,
                                                   ML-optimized integration grids
   S Lehtola, MJT Oliveira, MAL Marques          : LibXC Library
   Liviu Ungur et al                             : ANISO software


 Your calculation uses the libint2 library for the computation of 2-el integrals
 For citations please refer to: http://libint.valeyev.net

 Your ORCA version has been built with support for libXC version: 5.1.0
 For citations please refer to: https://tddft.org/programs/libxc/

 This ORCA versions uses:
   CBLAS   interface :  Fast vector & matrix operations
   LAPACKE interface :  Fast linear algebra routines
   SCALAPACK package :  Parallel linear algebra routines
   Shared memory     :  Shared parallel matrices
   BLAS/LAPACK       :  OpenBLAS 0.3.15  USE64BITINT DYNAMIC_ARCH NO_AFFINITY Haswell SINGLE_THREADED
        Core in use  :  Haswell
   Copyright (c) 2011-2014, The OpenBLAS Project




***************************************
The coordinates will be read from file: glyoxal.xyz
***************************************


Your calculation utilizes the geometrical counterpoise correction gCP
Please cite in your paper:
H.Kruse, S. Grimme J.Chem.Phys., 136, (2012), 154101 
   

Your calculation utilizes the atom-pairwise dispersion correction
with the Becke-Johnson damping scheme (D3BJ)
Cite in your paper:
S.Grimme, S.Ehrlich, L.Goerigk, J Comput Chem, (2011), 32, 1456–1465 
S.Grimme, J.Antony, S.Ehrlich and H.Krieg, J.Chem.Phys., 132, (2010), 154104 
   

Your calculation employs the composite approach PBEh-3c.
Please cite in your paper:
S. Grimme, J. G. Brandenburg, C. Bannwarth, A. Hansen J.Chem.Phys., 143, (2015), 054107 
   

================================================================================

----- Orbital basis set information -----
Your calculation utilizes the basis: def2-mSVP

----- AuxJ basis set information -----
Your calculation utilizes the auxiliary basis: def2/J
   F. Weigend, Phys. Chem. Chem. Phys. 8, 1057 (2006).

================================================================================
                                        WARNINGS
                       Please study these warnings very carefully!
================================================================================


INFO   : the flag for use of the SHARK integral package has been found!

================================================================================
                                       INPUT FILE
================================================================================
NAME = pbeh-3c.inp
|  1> ! PBEh-3c def2/J TightSCF DefGrid3
|  2> 
|  3> %maxcore 60000
|  4> 
|  5> %pal
|  6> nprocs 4
|  7> end
|  8> 
|  9> *xyzfile 0 1 glyoxal.xyz
| 10> 
| 11>                          ****END OF INPUT****
================================================================================

                       ****************************
                       * Single Point Calculation *
                       ****************************

---------------------------------
CARTESIAN COORDINATES (ANGSTROEM)
---------------------------------
  C      0.644356    0.402295    0.000000
  C     -0.644356   -0.402295    0.000000
  H      0.513390    1.497012    0.000000
  H     -0.513390   -1.497012    0.000000
  O      1.722585   -0.141077    0.000000
  O     -1.722585    0.141077    0.000000

----------------------------
CARTESIAN COORDINATES (A.U.)
----------------------------
  NO LB      ZA    FRAG     MASS         X           Y           Z
   0 C     6.0000    0    12.011    1.217656    0.760228    0.000000
   1 C     6.0000    0    12.011   -1.217656   -0.760228    0.000000
   2 H     1.0000    0     1.008    0.970167    2.828943    0.000000
   3 H     1.0000    0     1.008   -0.970167   -2.828943    0.000000
   4 O     8.0000    0    15.999    3.255213   -0.266597    0.000000
   5 O     8.0000    0    15.999   -3.255213    0.266597    0.000000

--------------------------------
INTERNAL COORDINATES (ANGSTROEM)
--------------------------------
 C      0   0   0     0.000000000000     0.00000000     0.00000000
 C      1   0   0     1.519257355569     0.00000000     0.00000000
 H      1   2   0     1.102523139113   115.15597492     0.00000000
 H      2   1   3     1.102523139113   115.15597492   180.00000000
 O      1   2   3     1.207407000909   121.27614369   180.00000085
 O      2   1   3     1.207407000909   121.27614369     0.00000000

---------------------------
INTERNAL COORDINATES (A.U.)
---------------------------
 C      0   0   0     0.000000000000     0.00000000     0.00000000
 C      1   0   0     2.870980328971     0.00000000     0.00000000
 H      1   2   0     2.083466789234   115.15597492     0.00000000
 H      2   1   3     2.083466789234   115.15597492   180.00000000
 O      1   2   3     2.281668563896   121.27614369   180.00000085
 O      2   1   3     2.281668563896   121.27614369     0.00000000

---------------------
BASIS SET INFORMATION
---------------------
There are 3 groups of distinct atoms

 Group   1 Type C   : 8s4p1d contracted to 4s2p1d pattern {5111/31/1}
 Group   2 Type H   : 4s contracted to 2s pattern {31}
 Group   3 Type O   : 8s4p1d contracted to 4s2p1d pattern {5111/31/1}

Atom   0C    basis set group =>   1
Atom   1C    basis set group =>   1
Atom   2H    basis set group =>   2
Atom   3H    basis set group =>   2
Atom   4O    basis set group =>   3
Atom   5O    basis set group =>   3
---------------------------------
AUXILIARY/J BASIS SET INFORMATION
---------------------------------
There are 3 groups of distinct atoms

 Group   1 Type C   : 12s5p4d2f1g contracted to 6s4p3d1f1g pattern {711111/2111/211/2/1}
 Group   2 Type H   : 5s2p1d contracted to 3s1p1d pattern {311/2/1}
 Group   3 Type O   : 12s5p4d2f1g contracted to 6s4p3d1f1g pattern {711111/2111/211/2/1}

Atom   0C    basis set group =>   1
Atom   1C    basis set group =>   1
Atom   2H    basis set group =>   2
Atom   3H    basis set group =>   2
Atom   4O    basis set group =>   3
Atom   5O    basis set group =>   3


           ************************************************************
           *        Program running with 4 parallel MPI-processes     *
           *              working on a common directory               *
           ************************************************************
------------------------------------------------------------------------------
                           ORCA GTO INTEGRAL CALCULATION
                           -- RI-GTO INTEGRALS CHOSEN --
------------------------------------------------------------------------------
------------------------------------------------------------------------------
                   ___                                                        
                  /   \      - P O W E R E D   B Y -                         
                 /     \                                                     
                 |  |  |   _    _      __       _____    __    __             
                 |  |  |  | |  | |    /  \     |  _  \  |  |  /  |          
                  \  \/   | |  | |   /    \    | | | |  |  | /  /          
                 / \  \   | |__| |  /  /\  \   | |_| |  |  |/  /          
                |  |  |   |  __  | /  /__\  \  |    /   |      \           
                |  |  |   | |  | | |   __   |  |    \   |  |\   \          
                \     /   | |  | | |  |  |  |  | |\  \  |  | \   \       
                 \___/    |_|  |_| |__|  |__|  |_| \__\ |__|  \__/        
                                                                              
                      - O R C A' S   B I G   F R I E N D -                    
                                      &                                       
                       - I N T E G R A L  F E E D E R -                       
                                                                              
 v1 FN, 2020, v2 2021                                                         
------------------------------------------------------------------------------


Reading SHARK input file pbeh-3c.SHARKINP.tmp ... ok
----------------------
SHARK INTEGRAL PACKAGE
----------------------

Number of atoms                             ...      6
Number of basis functions                   ...     64
Number of shells                            ...     32
Maximum angular momentum                    ...      2
Integral batch strategy                     ... SHARK/LIBINT Hybrid
RI-J (if used) integral strategy            ... SPLIT-RIJ (Revised 2003 algorithm where possible)
Printlevel                                  ...      1
Contraction scheme used                     ... SEGMENTED contraction
Coulomb Range Separation                    ... NOT USED
Exchange Range Separation                   ... NOT USED
Finite Nucleus Model                        ... NOT USED
Auxiliary Coulomb fitting basis             ... AVAILABLE
   # of basis functions in Aux-J            ...    218
   # of shells in Aux-J                     ...     70
   Maximum angular momentum in Aux-J        ...      4
Auxiliary J/K fitting basis                 ... NOT available
Auxiliary Correlation fitting basis         ... NOT available
Auxiliary 'external' fitting basis          ... NOT available
Integral threshold                          ...     2.500000e-11
Primitive cut-off                           ...     2.500000e-12
Primitive pair pre-selection threshold      ...     2.500000e-12

Calculating pre-screening integrals         ... done (  0.0 sec) Dimension = 32
Organizing shell pair data                  ... done (  0.0 sec)
Shell pair information
Total number of shell pairs                 ...       528
Shell pairs after pre-screening             ...       501
Total number of primitive shell pairs       ...      1888
Primitive shell pairs kept                  ...      1434
          la=0 lb=0:    191 shell pairs
          la=1 lb=0:    156 shell pairs
          la=1 lb=1:     36 shell pairs
          la=2 lb=0:     76 shell pairs
          la=2 lb=1:     32 shell pairs
          la=2 lb=2:     10 shell pairs

Calculating one electron integrals          ... done (  0.0 sec)
Calculating RI/J V-Matrix + Cholesky decomp.... done (  0.0 sec)
Calculating Nuclear repulsion               ... done (  0.0 sec) ENN=    101.922456590521 Eh

SHARK setup successfully completed in   0.4 seconds

Maximum memory used throughout the entire GTOINT-calculation: 9.2 MB


           ************************************************************
           *        Program running with 4 parallel MPI-processes     *
           *              working on a common directory               *
           ************************************************************
-------------------------------------------------------------------------------
                                 ORCA SCF
-------------------------------------------------------------------------------

------------
SCF SETTINGS
------------
Hamiltonian:
 Density Functional     Method          .... DFT(GTOs)
 Exchange Functional    Exchange        .... PBE
   PBE kappa parameter   XKappa         ....  1.024500
   PBE mue parameter    XMuePBE         ....  0.123457
 Correlation Functional Correlation     .... PBE
   PBE beta parameter  CBetaPBE         ....  0.030000
 LDA part of GGA corr.  LDAOpt          .... PW91-LDA
 Gradients option       PostSCFGGA      .... off
 Hybrid DFT is turned on
   Fraction HF Exchange ScalHFX         ....  0.420000
   Scaling of DF-GGA-X  ScalDFX         ....  0.580000
   Scaling of DF-GGA-C  ScalDFC         ....  1.000000
   Scaling of DF-LDA-C  ScalLDAC        ....  1.000000
   Perturbative correction              ....  0.000000
   Density functional embedding theory  .... OFF
 RI-approximation to the Coulomb term is turned on
   Number of AuxJ basis functions       .... 218
   RIJ-ON(X) (HFX calculated with O(N)) .... on
   Number of AuxJ basis functions       .... 218
   RIJ-COSX (HFX calculated with COS-X)).... on


General Settings:
 Integral files         IntName         .... pbeh-3c
 Hartree-Fock type      HFTyp           .... RHF
 Total Charge           Charge          ....    0
 Multiplicity           Mult            ....    1
 Number of Electrons    NEL             ....   30
 Basis Dimension        Dim             ....   64
 Nuclear Repulsion      ENuc            ....    101.9224565905 Eh

Convergence Acceleration:
 DIIS                   CNVDIIS         .... on
   Start iteration      DIISMaxIt       ....    12
   Startup error        DIISStart       ....  0.200000
   # of expansion vecs  DIISMaxEq       ....     5
   Bias factor          DIISBfac        ....   1.050
   Max. coefficient     DIISMaxC        ....  10.000
 Trust-Rad. Augm. Hess. CNVTRAH         .... auto
   Auto Start mean grad. ratio tolernc. ....  1.125000
   Auto Start start iteration           ....    20
   Auto Start num. interpolation iter.  ....    10
   Max. Number of Micro iterations      ....    16
   Max. Number of Macro iterations      .... Maxiter - #DIIS iter
   Number of Davidson start vectors     ....     2
   Converg. threshold I  (grad. norm)   ....   1.000e-05
   Converg. threshold II (energy diff.) ....   1.000e-08
   Grad. Scal. Fac. for Micro threshold ....   0.100
   Minimum threshold for Micro iter.    ....   0.010
   NR start threshold (gradient norm)   ....   0.001
   Initial trust radius                 ....   0.400
   Minimum AH scaling param. (alpha)    ....   1.000
   Maximum AH scaling param. (alpha)    .... 1000.000
   Orbital update algorithm             .... Taylor
   White noise on init. David. guess    .... on
   Maximum white noise                  ....   0.010
   Quad. conv. algorithm                .... NR
   COSX micro iterations for RIJONX calc.... off
 SOSCF                  CNVSOSCF        .... on
   Start iteration      SOSCFMaxIt      ....   150
   Startup grad/error   SOSCFStart      ....  0.003300
 Level Shifting         CNVShift        .... on
   Level shift para.    LevelShift      ....    0.2500
   Turn off err/grad.   ShiftErr        ....    0.0010
 Zerner damping         CNVZerner       .... off
 Static damping         CNVDamp         .... on
   Fraction old density DampFac         ....    0.7000
   Max. Damping (<1)    DampMax         ....    0.9800
   Min. Damping (>=0)   DampMin         ....    0.0000
   Turn off err/grad.   DampErr         ....    0.1000
 Fernandez-Rico         CNVRico         .... off

SCF Procedure:
 Maximum # iterations   MaxIter         ....   125
 SCF integral mode      SCFMode         .... Direct
   Integral package                     .... SHARK and LIBINT hybrid scheme
 Reset frequency        DirectResetFreq ....    20
 Integral Threshold     Thresh          ....  2.500e-11 Eh
 Primitive CutOff       TCut            ....  2.500e-12 Eh

Convergence Tolerance:
 Convergence Check Mode ConvCheckMode   .... Total+1el-Energy
 Convergence forced     ConvForced      .... 0
 Energy Change          TolE            ....  1.000e-08 Eh
 1-El. energy change                    ....  1.000e-05 Eh
 Orbital Gradient       TolG            ....  1.000e-05
 Orbital Rotation angle TolX            ....  1.000e-05
 DIIS Error             TolErr          ....  5.000e-07


Diagonalization of the overlap matrix:
Smallest eigenvalue                        ... 7.693e-03
Time for diagonalization                   ...    0.001 sec
Threshold for overlap eigenvalues          ... 1.000e-08
Number of eigenvalues below threshold      ... 0
Time for construction of square roots      ...    0.003 sec
Total time needed                          ...    0.004 sec

--------------------------------
INITIAL GUESS: MINIMAL BASIS EHT
--------------------------------
The minimal basis has 22 functions
EHT matrix was diagonalized
Basis set overlap was calculated now projecting the orbitals
Using GuessMode=FMatrix for the initial guess
C*T matrix was formed
Effective Fockian was calculated
Effective Fockian was diagonalized
Initial density was built
                      ------------------
                      INITIAL GUESS DONE
                      ------------------
-------------------
DFT GRID GENERATION
-------------------

General Integration Accuracy     IntAcc      ... 4.959
Radial Grid Type                 RadialGrid  ... OptM3 with GC (2021)
Angular Grid (max. ang.)         AngularGrid ... 6 (Lebedev-590)
Angular grid pruning method      GridPruning ... 4 (adaptive)
Weight generation scheme         WeightScheme... Becke
Basis function cutoff            BFCut       ... 1.0000e-11
Integration weight cutoff        WCut        ... 1.0000e-14
Angular grids for H and He will be reduced by one unit
Partially contracted basis set               ... off
Rotationally invariant grid construction     ... off

Total number of grid points                  ...    75908
Total number of batches                      ...     1190
Average number of points per batch           ...       63
Average number of grid points per atom       ...    12651
Time for grid setup =    1.140 sec

--------------------
COSX GRID GENERATION
--------------------

GRIDX 1
-------
General Integration Accuracy     IntAcc      ... 4.020
Radial Grid Type                 RadialGrid  ... OptM3 with GC (2021)
Angular Grid (max. ang.)         AngularGrid ... 2 (Lebedev-110)
Angular grid pruning method      GridPruning ... 4 (adaptive)
Weight generation scheme         WeightScheme... Becke
Basis function cutoff            BFCut       ... 1.0000e-11
Integration weight cutoff        WCut        ... 1.0000e-14
Angular grids for H and He will be reduced by one unit
Partially contracted basis set               ... on
Rotationally invariant grid construction     ... off

Total number of grid points                  ...     9038
Total number of batches                      ...      144
Average number of points per batch           ...       62
Average number of grid points per atom       ...     1506
UseSFitting                                  ... on

GRIDX 2
-------
General Integration Accuracy     IntAcc      ... 4.338
Radial Grid Type                 RadialGrid  ... OptM3 with GC (2021)
Angular Grid (max. ang.)         AngularGrid ... 3 (Lebedev-194)
Angular grid pruning method      GridPruning ... 4 (adaptive)
Weight generation scheme         WeightScheme... Becke
Basis function cutoff            BFCut       ... 1.0000e-11
Integration weight cutoff        WCut        ... 1.0000e-14
Angular grids for H and He will be reduced by one unit
Partially contracted basis set               ... on
Rotationally invariant grid construction     ... off

Total number of grid points                  ...    20062
Total number of batches                      ...      316
Average number of points per batch           ...       63
Average number of grid points per atom       ...     3344
UseSFitting                                  ... on

GRIDX 3
-------
General Integration Accuracy     IntAcc      ... 4.871
Radial Grid Type                 RadialGrid  ... OptM3 with GC (2021)
Angular Grid (max. ang.)         AngularGrid ... 4 (Lebedev-302)
Angular grid pruning method      GridPruning ... 4 (adaptive)
Weight generation scheme         WeightScheme... Becke
Basis function cutoff            BFCut       ... 1.0000e-11
Integration weight cutoff        WCut        ... 1.0000e-14
Angular grids for H and He will be reduced by one unit
Partially contracted basis set               ... on
Rotationally invariant grid construction     ... off

Total number of grid points                  ...    37330
Total number of batches                      ...      584
Average number of points per batch           ...       63
Average number of grid points per atom       ...     6222
UseSFitting                                  ... on

Time for X-Grid setup             =    0.963 sec

--------------
SCF ITERATIONS
--------------
ITER       Energy         Delta-E        Max-DP      RMS-DP      [F,P]     Damp
               ***  Starting incremental Fock matrix formation  ***
  0   -226.4017615349   0.000000000000 0.16821368  0.01266662  0.5192110 0.7000
  1   -226.7884857769  -0.386724241993 0.09580970  0.00685536  0.2423418 0.7000
                               ***Turning on DIIS***
  2   -226.9480720812  -0.159586304291 0.05458008  0.00328731  0.1748947 0.7000
  3   -227.0613792848  -0.113307203597 0.03341750  0.00209717  0.1243118 0.7000
  4   -227.1441187175  -0.082739432701 0.07372129  0.00494857  0.0851775 0.0000
  5   -227.3402584710  -0.196139753528 0.00620987  0.00051393  0.0075908 0.0000
  6   -227.3404256024  -0.000167131464 0.00299788  0.00016220  0.0071200 0.0000
                      *** Initiating the SOSCF procedure ***
                           *** Shutting down DIIS ***
                      *** Re-Reading the Fockian *** 
                      *** Removing any level shift *** 
ITER      Energy       Delta-E        Grad      Rot      Max-DP    RMS-DP
  7   -227.34049245  -0.0000668442  0.000754  0.000754  0.001303  0.000086
               *** Restarting incremental Fock matrix formation ***
  8   -227.34047698   0.0000154680  0.000306  0.000722  0.000570  0.000042
  9   -227.34047823  -0.0000012498  0.000102  0.000233  0.000501  0.000034
 10   -227.34047823   0.0000000005  0.000138  0.000071  0.000160  0.000012
 11   -227.34047839  -0.0000001616  0.000020  0.000046  0.000050  0.000004
 12   -227.34047839  -0.0000000034  0.000010  0.000015  0.000021  0.000002
                 **** Energy Check signals convergence ****
              ***Rediagonalizing the Fockian in SOSCF/NRSCF***

               *****************************************************
               *                     SUCCESS                       *
               *           SCF CONVERGED AFTER  13 CYCLES          *
               *****************************************************

Old exchange energy                            =    -11.526824716 Eh
New exchange energy                            =    -11.526823144 Eh
Exchange energy change after final integration =      0.000001572 Eh
Total energy after final integration           =   -227.340476823 Eh
Final COS-X integration done in                =     0.601 sec

----------------
TOTAL SCF ENERGY
----------------

Total Energy       :         -227.34047682 Eh           -6186.24888 eV

Components:
Nuclear Repulsion  :          101.92245659 Eh            2773.45104 eV
Electronic Energy  :         -329.26293341 Eh           -8959.69992 eV
One Electron Energy:         -511.85713777 Eh          -13928.34082 eV
Two Electron Energy:          182.59420435 Eh            4968.64090 eV
Max COSX asymmetry :            0.00000043 Eh               0.00001 eV

Virial components:
Potential Energy   :         -453.16376890 Eh          -12331.21306 eV
Kinetic Energy     :          225.82329207 Eh            6144.96418 eV
Virial Ratio       :            2.00671846


DFT components:
N(Alpha)           :       14.999999804519 electrons
N(Beta)            :       14.999999804519 electrons
N(Total)           :       29.999999609038 electrons
E(X)               :      -15.364974109211 Eh       
E(C)               :       -1.327732957436 Eh       
E(XC)              :      -16.692707066647 Eh       
DFET-embed. en.    :        0.000000000000 Eh       

---------------
SCF CONVERGENCE
---------------

  Last Energy change         ...   -2.6336e-09  Tolerance :   1.0000e-08
  Last MAX-Density change    ...    7.6648e-16  Tolerance :   1.0000e-07
  Last RMS-Density change    ...    5.7702e-17  Tolerance :   5.0000e-09
  Last Orbital Gradient      ...    2.5607e-07  Tolerance :   1.0000e-05
  Last Orbital Rotation      ...    1.5879e-07  Tolerance :   1.0000e-05

             **** THE GBW FILE WAS UPDATED (pbeh-3c.gbw) ****
             **** DENSITY pbeh-3c.scfp WAS UPDATED ****
             **** ENERGY FILE WAS UPDATED (pbeh-3c.en.tmp) ****
             **** THE GBW FILE WAS UPDATED (pbeh-3c.gbw) ****
             **** DENSITY pbeh-3c.scfp WAS UPDATED ****
----------------
ORBITAL ENERGIES
----------------

  NO   OCC          E(Eh)            E(eV) 
   0   2.0000     -19.542481      -531.7779 
   1   2.0000     -19.542440      -531.7768 
   2   2.0000     -10.565010      -287.4885 
   3   2.0000     -10.564838      -287.4839 
   4   2.0000      -1.205992       -32.8167 
   5   2.0000      -1.191128       -32.4122 
   6   2.0000      -0.798317       -21.7233 
   7   2.0000      -0.680411       -18.5149 
   8   2.0000      -0.574852       -15.6425 
   9   2.0000      -0.565888       -15.3986 
  10   2.0000      -0.527530       -14.3548 
  11   2.0000      -0.509077       -13.8527 
  12   2.0000      -0.451466       -12.2850 
  13   2.0000      -0.397682       -10.8215 
  14   2.0000      -0.327913        -8.9230 
  15   0.0000      -0.085584        -2.3289 
  16   0.0000       0.059359         1.6153 
  17   0.0000       0.153084         4.1656 
  18   0.0000       0.204984         5.5779 
  19   0.0000       0.213694         5.8149 
  20   0.0000       0.351127         9.5546 
  21   0.0000       0.351509         9.5651 
  22   0.0000       0.482373        13.1260 
  23   0.0000       0.543599        14.7921 
  24   0.0000       0.543866        14.7994 
  25   0.0000       0.544209        14.8087 
  26   0.0000       0.676723        18.4146 
  27   0.0000       0.728682        19.8284 
  28   0.0000       0.787291        21.4233 
  29   0.0000       0.881334        23.9823 
  30   0.0000       0.941127        25.6094 
  31   0.0000       0.942250        25.6399 
  32   0.0000       0.960439        26.1349 
  33   0.0000       1.040874        28.3236 
  34   0.0000       1.067879        29.0585 
  35   0.0000       1.119742        30.4697 
  36   0.0000       1.161211        31.5982 
  37   0.0000       1.180341        32.1187 
  38   0.0000       1.356426        36.9102 
  39   0.0000       1.506216        40.9862 
  40   0.0000       1.581317        43.0298 
  41   0.0000       1.633789        44.4577 
  42   0.0000       1.748850        47.5886 
  43   0.0000       1.752578        47.6901 
  44   0.0000       1.810234        49.2590 
  45   0.0000       1.916067        52.1388 
  46   0.0000       1.923020        52.3280 
  47   0.0000       1.974377        53.7255 
  48   0.0000       2.065076        56.1936 
  49   0.0000       2.134442        58.0811 
  50   0.0000       2.193815        59.6967 
  51   0.0000       2.229754        60.6747 
  52   0.0000       2.388201        64.9862 
  53   0.0000       2.431403        66.1618 
  54   0.0000       2.614200        71.1360 
  55   0.0000       2.617077        71.2143 
  56   0.0000       2.883492        78.4638 
  57   0.0000       2.913954        79.2927 
  58   0.0000       2.950790        80.2951 
  59   0.0000       3.032806        82.5268 
  60   0.0000      13.526764       368.0819 
  61   0.0000      13.899453       378.2234 
  62   0.0000      25.539414       694.9628 
  63   0.0000      25.634049       697.5379 

                    ********************************
                    * MULLIKEN POPULATION ANALYSIS *
                    ********************************

-----------------------
MULLIKEN ATOMIC CHARGES
-----------------------
   0 C :    0.082304
   1 C :    0.082304
   2 H :    0.198252
   3 H :    0.198252
   4 O :   -0.280556
   5 O :   -0.280556
Sum of atomic charges:   -0.0000000

--------------------------------
MULLIKEN REDUCED ORBITAL CHARGES
--------------------------------
  0 C s       :     3.247127  s :     3.247127
      pz      :     0.727107  p :     2.581416
      px      :     0.858946
      py      :     0.995363
      dz2     :     0.005771  d :     0.089152
      dxz     :     0.011755
      dyz     :     0.003557
      dx2y2   :     0.036864
      dxy     :     0.031206
  1 C s       :     3.247128  s :     3.247128
      pz      :     0.727107  p :     2.581416
      px      :     0.858946
      py      :     0.995363
      dz2     :     0.005771  d :     0.089152
      dxz     :     0.011755
      dyz     :     0.003557
      dx2y2   :     0.036864
      dxy     :     0.031206
  2 H s       :     0.801748  s :     0.801748
  3 H s       :     0.801748  s :     0.801748
  4 O s       :     3.775810  s :     3.775810
      pz      :     1.244487  p :     4.473075
      px      :     1.492264
      py      :     1.736323
      dz2     :     0.002563  d :     0.031671
      dxz     :     0.010623
      dyz     :     0.002472
      dx2y2   :     0.008083
      dxy     :     0.007931
  5 O s       :     3.775810  s :     3.775810
      pz      :     1.244487  p :     4.473075
      px      :     1.492264
      py      :     1.736323
      dz2     :     0.002563  d :     0.031671
      dxz     :     0.010623
      dyz     :     0.002472
      dx2y2   :     0.008083
      dxy     :     0.007931


                     *******************************
                     * LOEWDIN POPULATION ANALYSIS *
                     *******************************

----------------------
LOEWDIN ATOMIC CHARGES
----------------------
   0 C :    0.025081
   1 C :    0.025081
   2 H :    0.107855
   3 H :    0.107855
   4 O :   -0.132936
   5 O :   -0.132936

-------------------------------
LOEWDIN REDUCED ORBITAL CHARGES
-------------------------------
  0 C s       :     2.960987  s :     2.960987
      pz      :     0.728531  p :     2.818349
      px      :     1.015749
      py      :     1.074069
      dz2     :     0.012783  d :     0.195583
      dxz     :     0.021833
      dyz     :     0.005443
      dx2y2   :     0.082033
      dxy     :     0.073490
  1 C s       :     2.960987  s :     2.960987
      pz      :     0.728531  p :     2.818349
      px      :     1.015749
      py      :     1.074069
      dz2     :     0.012783  d :     0.195583
      dxz     :     0.021833
      dyz     :     0.005443
      dx2y2   :     0.082033
      dxy     :     0.073490
  2 H s       :     0.892145  s :     0.892145
  3 H s       :     0.892145  s :     0.892145
  4 O s       :     3.529625  s :     3.529625
      pz      :     1.228003  p :     4.544021
      px      :     1.559710
      py      :     1.756308
      dz2     :     0.006296  d :     0.059290
      dxz     :     0.013060
      dyz     :     0.003130
      dx2y2   :     0.018332
      dxy     :     0.018472
  5 O s       :     3.529625  s :     3.529625
      pz      :     1.228003  p :     4.544021
      px      :     1.559710
      py      :     1.756308
      dz2     :     0.006296  d :     0.059290
      dxz     :     0.013060
      dyz     :     0.003130
      dx2y2   :     0.018332
      dxy     :     0.018472


                      *****************************
                      * MAYER POPULATION ANALYSIS *
                      *****************************

  NA   - Mulliken gross atomic population
  ZA   - Total nuclear charge
  QA   - Mulliken gross atomic charge
  VA   - Mayer's total valence
  BVA  - Mayer's bonded valence
  FA   - Mayer's free valence

  ATOM       NA         ZA         QA         VA         BVA        FA
  0 C      5.9177     6.0000     0.0823     3.8260     3.8260    -0.0000
  1 C      5.9177     6.0000     0.0823     3.8260     3.8260    -0.0000
  2 H      0.8017     1.0000     0.1983     0.8990     0.8990     0.0000
  3 H      0.8017     1.0000     0.1983     0.8990     0.8990    -0.0000
  4 O      8.2806     8.0000    -0.2806     2.2227     2.2227    -0.0000
  5 O      8.2806     8.0000    -0.2806     2.2227     2.2227     0.0000

  Mayer bond orders larger than 0.100000
B(  0-C ,  1-C ) :   0.8409 B(  0-C ,  2-H ) :   0.8521 B(  0-C ,  4-O ) :   2.1123 
B(  1-C ,  3-H ) :   0.8521 B(  1-C ,  5-O ) :   2.1123 

-------
TIMINGS
-------

Total SCF time: 0 days 0 hours 0 min 22 sec 

Total time                  ....      22.325 sec
Sum of individual times     ....      20.680 sec  ( 92.6%)

Fock matrix formation       ....      17.408 sec  ( 78.0%)
  Split-RI-J                ....       2.399 sec  ( 13.8% of F)
  Chain of spheres X        ....       5.085 sec  ( 29.2% of F)
  XC integration            ....       4.682 sec  ( 26.9% of F)
    Basis function eval.    ....       0.736 sec  ( 15.7% of XC)
    Density eval.           ....       0.496 sec  ( 10.6% of XC)
    XC-Functional eval.     ....       0.656 sec  ( 14.0% of XC)
    XC-Potential eval.      ....       0.274 sec  (  5.9% of XC)
Diagonalization             ....       0.243 sec  (  1.1%)
Density matrix formation    ....       0.027 sec  (  0.1%)
Population analysis         ....       0.090 sec  (  0.4%)
Initial guess               ....       0.003 sec  (  0.0%)
Orbital Transformation      ....       0.000 sec  (  0.0%)
Orbital Orthonormalization  ....       0.000 sec  (  0.0%)
DIIS solution               ....       0.596 sec  (  2.7%)
SOSCF solution              ....       0.210 sec  (  0.9%)
Grid generation             ....       2.103 sec  (  9.4%)

Maximum memory used throughout the entire SCF-calculation: 46.1 MB


-------------------------------------------------------------------------------
                          DFT DISPERSION CORRECTION                            
                                                                               
                              DFTD3 V3.1  Rev 1                                
                          USING Becke-Johnson damping                          
-------------------------------------------------------------------------------
The PBEh-3c composite method is recognized
Using three-body term ABC
Active option DFTDOPT                   ...         4   

molecular C6(AA) [au] = 427.836764 


            DFT-D V3
 parameters
 s6 scaling factor         :     1.0000 
 a1 scaling factor         :     0.4860 
 s8 scaling factor         :     0.0000 
 a2 scaling factor         :     4.5000 
 Damping factor alpha9(ATM):    16.0000 
 ad hoc parameters k1-k3   :    16.0000     1.3333    -4.0000 

 Edisp/kcal,au: -1.047387439068  -0.001669117951 
 E6   /kcal   :  -1.047872999 
 E8   /kcal   :  -0.000000000 
 E6(ABC)      :   0.000485560 
 % E8         :   0.000000000 
 % E6(ABC)    :  -0.046359196 

-------------------------   ----------------
Dispersion correction           -0.001669118
-------------------------   ----------------

------------------   -----------------
gCP correction             0.012883800
------------------   -----------------

-------------------------   --------------------
FINAL SINGLE POINT ENERGY      -227.329262141441
-------------------------   --------------------


                            ***************************************
                            *     ORCA property calculations      *
                            ***************************************

                                    ---------------------
                                    Active property flags
                                    ---------------------
   (+) Dipole Moment


------------------------------------------------------------------------------
                       ORCA ELECTRIC PROPERTIES CALCULATION
------------------------------------------------------------------------------

Dipole Moment Calculation                       ... on
Quadrupole Moment Calculation                   ... off
Polarizability Calculation                      ... off
GBWName                                         ... pbeh-3c.gbw
Electron density                                ... pbeh-3c.scfp
The origin for moment calculation is the CENTER OF MASS  = ( 0.000000,  0.000000  0.000000)

-------------
DIPOLE MOMENT
-------------
                                X             Y             Z
Electronic contribution:     -0.00000      -0.00000       0.00000
Nuclear contribution   :      0.00000       0.00000       0.00000
                        -----------------------------------------
Total Dipole Moment    :     -0.00000      -0.00000       0.00000
                        -----------------------------------------
Magnitude (a.u.)       :      0.00000
Magnitude (Debye)      :      0.00000



--------------------
Rotational spectrum 
--------------------
 
Rotational constants in cm-1:     1.864257     0.159860     0.147234 
Rotational constants in MHz : 55889.008869  4792.473101  4413.975450 

 Dipole components along the rotational axes: 
x,y,z [a.u.] :     0.000000    -0.000000     0.000000 
x,y,z [Debye]:     0.000000    -0.000000     0.000000 

 

Timings for individual modules:

Sum of individual times         ...       23.610 sec (=   0.393 min)
GTO integral calculation        ...        0.858 sec (=   0.014 min)   3.6 %
SCF iterations                  ...       22.752 sec (=   0.379 min)  96.4 %
                             ****ORCA TERMINATED NORMALLY****
TOTAL RUN TIME: 0 days 0 hours 0 minutes 24 seconds 358 msec
