
                                 *****************
                                 * O   R   C   A *
                                 *****************

                                            #,                                       
                                            ###                                      
                                            ####                                     
                                            #####                                    
                                            ######                                   
                                           ########,                                 
                                     ,,################,,,,,                         
                               ,,#################################,,                 
                          ,,##########################################,,             
                       ,#########################################, ''#####,          
                    ,#############################################,,   '####,        
                  ,##################################################,,,,####,       
                ,###########''''           ''''###############################       
              ,#####''   ,,,,##########,,,,          '''####'''          '####       
            ,##' ,,,,###########################,,,                        '##       
           ' ,,###''''                  '''############,,,                           
         ,,##''                                '''############,,,,        ,,,,,,###''
      ,#''                                            '''#######################'''  
     '                                                          ''''####''''         
             ,#######,   #######,   ,#######,      ##                                
            ,#'     '#,  ##    ##  ,#'     '#,    #''#        ######   ,####,        
            ##       ##  ##   ,#'  ##            #'  '#       #        #'  '#        
            ##       ##  #######   ##           ,######,      #####,   #    #        
            '#,     ,#'  ##    ##  '#,     ,#' ,#      #,         ##   #,  ,#        
             '#######'   ##     ##  '#######'  #'      '#     #####' # '####'        



                  #######################################################
                  #                        -***-                        #
                  #          Department of theory and spectroscopy      #
                  #    Directorship and core code : Frank Neese         #
                  #        Max Planck Institute fuer Kohlenforschung    #
                  #                Kaiser Wilhelm Platz 1               #
                  #                 D-45470 Muelheim/Ruhr               #
                  #                      Germany                        #
                  #                                                     #
                  #                  All rights reserved                #
                  #                        -***-                        #
                  #######################################################


                         Program Version 5.0.3 -  RELEASE  -


 With contributions from (in alphabetic order):
   Daniel Aravena         : Magnetic Suceptibility
   Michael Atanasov       : Ab Initio Ligand Field Theory (pilot matlab implementation)
   Alexander A. Auer      : GIAO ZORA, VPT2 properties, NMR spectrum
   Ute Becker             : Parallelization
   Giovanni Bistoni       : ED, misc. LED, open-shell LED, HFLD
   Martin Brehm           : Molecular dynamics
   Dmytro Bykov           : SCF Hessian
   Vijay G. Chilkuri      : MRCI spin determinant printing, contributions to CSF-ICE
   Dipayan Datta          : RHF DLPNO-CCSD density
   Achintya Kumar Dutta   : EOM-CC, STEOM-CC
   Dmitry Ganyushin       : Spin-Orbit,Spin-Spin,Magnetic field MRCI
   Miquel Garcia          : C-PCM and meta-GGA Hessian, CC/C-PCM, Gaussian charge scheme
   Yang Guo               : DLPNO-NEVPT2, F12-NEVPT2, CIM, IAO-localization
   Andreas Hansen         : Spin unrestricted coupled pair/coupled cluster methods
   Benjamin Helmich-Paris : MC-RPA, TRAH-SCF, COSX integrals
   Lee Huntington         : MR-EOM, pCC
   Robert Izsak           : Overlap fitted RIJCOSX, COSX-SCS-MP3, EOM
   Marcus Kettner         : VPT2
   Christian Kollmar      : KDIIS, OOCD, Brueckner-CCSD(T), CCSD density, CASPT2, CASPT2-K
   Simone Kossmann        : Meta GGA functionals, TD-DFT gradient, OOMP2, MP2 Hessian
   Martin Krupicka        : Initial AUTO-CI
   Lucas Lang             : DCDCAS
   Marvin Lechner         : AUTO-CI (C++ implementation), FIC-MRCC
   Dagmar Lenk            : GEPOL surface, SMD
   Dimitrios Liakos       : Extrapolation schemes; Compound Job, initial MDCI parallelization
   Dimitrios Manganas     : Further ROCIS development; embedding schemes
   Dimitrios Pantazis     : SARC Basis sets
   Anastasios Papadopoulos: AUTO-CI, single reference methods and gradients
   Taras Petrenko         : DFT Hessian,TD-DFT gradient, ASA, ECA, R-Raman, ABS, FL, XAS/XES, NRVS
   Peter Pinski           : DLPNO-MP2, DLPNO-MP2 Gradient
   Christoph Reimann      : Effective Core Potentials
   Marius Retegan         : Local ZFS, SOC
   Christoph Riplinger    : Optimizer, TS searches, QM/MM, DLPNO-CCSD(T), (RO)-DLPNO pert. Triples
   Tobias Risthaus        : Range-separated hybrids, TD-DFT gradient, RPA, STAB
   Michael Roemelt        : Original ROCIS implementation
   Masaaki Saitow         : Open-shell DLPNO-CCSD energy and density
   Barbara Sandhoefer     : DKH picture change effects
   Avijit Sen             : IP-ROCIS
   Kantharuban Sivalingam : CASSCF convergence, NEVPT2, FIC-MRCI
   Bernardo de Souza      : ESD, SOC TD-DFT
   Georgi Stoychev        : AutoAux, RI-MP2 NMR, DLPNO-MP2 response
   Willem Van den Heuvel  : Paramagnetic NMR
   Boris Wezisla          : Elementary symmetry handling
   Frank Wennmohs         : Technical directorship


 We gratefully acknowledge several colleagues who have allowed us to
 interface, adapt or use parts of their codes:
   Stefan Grimme, W. Hujo, H. Kruse, P. Pracht,  : VdW corrections, initial TS optimization,
                  C. Bannwarth, S. Ehlert          DFT functionals, gCP, sTDA/sTD-DF
   Ed Valeev, F. Pavosevic, A. Kumar             : LibInt (2-el integral package), F12 methods
   Garnet Chan, S. Sharma, J. Yang, R. Olivares  : DMRG
   Ulf Ekstrom                                   : XCFun DFT Library
   Mihaly Kallay                                 : mrcc  (arbitrary order and MRCC methods)
   Jiri Pittner, Ondrej Demel                    : Mk-CCSD
   Frank Weinhold                                : gennbo (NPA and NBO analysis)
   Christopher J. Cramer and Donald G. Truhlar   : smd solvation model
   Lars Goerigk                                  : TD-DFT with DH, B97 family of functionals
   V. Asgeirsson, H. Jonsson                     : NEB implementation
   FAccTs GmbH                                   : IRC, NEB, NEB-TS, DLPNO-Multilevel, CI-OPT
                                                   MM, QMMM, 2- and 3-layer-ONIOM, Crystal-QMMM,
                                                   LR-CPCM, SF, NACMEs, symmetry and pop. for TD-DFT,
                                                   nearIR, NL-DFT gradient (VV10), updates on ESD,
                                                   ML-optimized integration grids
   S Lehtola, MJT Oliveira, MAL Marques          : LibXC Library
   Liviu Ungur et al                             : ANISO software


 Your calculation uses the libint2 library for the computation of 2-el integrals
 For citations please refer to: http://libint.valeyev.net

 Your ORCA version has been built with support for libXC version: 5.1.0
 For citations please refer to: https://tddft.org/programs/libxc/

 This ORCA versions uses:
   CBLAS   interface :  Fast vector & matrix operations
   LAPACKE interface :  Fast linear algebra routines
   SCALAPACK package :  Parallel linear algebra routines
   Shared memory     :  Shared parallel matrices
   BLAS/LAPACK       :  OpenBLAS 0.3.15  USE64BITINT DYNAMIC_ARCH NO_AFFINITY Haswell SINGLE_THREADED
        Core in use  :  Haswell
   Copyright (c) 2011-2014, The OpenBLAS Project




***************************************
The coordinates will be read from file: C2H5.xyz
***************************************


Your calculation utilizes the geometrical counterpoise correction gCP
Please cite in your paper:
H.Kruse, S. Grimme J.Chem.Phys., 136, (2012), 154101 
   

Your calculation utilizes the atom-pairwise dispersion correction
with the Becke-Johnson damping scheme (D3BJ)
Cite in your paper:
S.Grimme, S.Ehrlich, L.Goerigk, J Comput Chem, (2011), 32, 1456–1465 
S.Grimme, J.Antony, S.Ehrlich and H.Krieg, J.Chem.Phys., 132, (2010), 154104 
   

Your calculation employs the composite approach PBEh-3c.
Please cite in your paper:
S. Grimme, J. G. Brandenburg, C. Bannwarth, A. Hansen J.Chem.Phys., 143, (2015), 054107 
   

================================================================================

----- Orbital basis set information -----
Your calculation utilizes the basis: def2-mSVP

----- AuxJ basis set information -----
Your calculation utilizes the auxiliary basis: def2/J
   F. Weigend, Phys. Chem. Chem. Phys. 8, 1057 (2006).

================================================================================
                                        WARNINGS
                       Please study these warnings very carefully!
================================================================================


WARNING: your system is open-shell and RHF/RKS was chosen
  ===> : WILL SWITCH to UHF/UKS


INFO   : the flag for use of the SHARK integral package has been found!

================================================================================
                                       INPUT FILE
================================================================================
NAME = pbeh-3c.inp
|  1> ! PBEh-3c def2/J TightSCF DefGrid3
|  2> 
|  3> %maxcore 60000
|  4> 
|  5> %pal
|  6> nprocs 4
|  7> end
|  8> 
|  9> *xyzfile 0 2 C2H5.xyz
| 10> 
| 11>                          ****END OF INPUT****
================================================================================

                       ****************************
                       * Single Point Calculation *
                       ****************************

---------------------------------
CARTESIAN COORDINATES (ANGSTROEM)
---------------------------------
  C      0.865488    0.000132   -0.038720
  C     -0.624490    0.000296   -0.016786
  H     -1.032517    0.889720   -0.497381
  H      1.419357   -0.923924    0.032160
  H     -1.015160   -0.013201    1.008320
  H     -1.032946   -0.876594   -0.519900
  H      1.420267    0.923572    0.032308

----------------------------
CARTESIAN COORDINATES (A.U.)
----------------------------
  NO LB      ZA    FRAG     MASS         X           Y           Z
   0 C     6.0000    0    12.011    1.635536    0.000249   -0.073171
   1 C     6.0000    0    12.011   -1.180114    0.000559   -0.031720
   2 H     1.0000    0     1.008   -1.951174    1.681327   -0.939915
   3 H     1.0000    0     1.008    2.682196   -1.745963    0.060773
   4 H     1.0000    0     1.008   -1.918374   -0.024947    1.905449
   5 H     1.0000    0     1.008   -1.951984   -1.656523   -0.982468
   6 H     1.0000    0     1.008    2.683916    1.745297    0.061052

--------------------------------
INTERNAL COORDINATES (ANGSTROEM)
--------------------------------
 C      0   0   0     0.000000000000     0.00000000     0.00000000
 C      1   0   0     1.490139259005     0.00000000     0.00000000
 H      2   1   0     1.090199394353   111.58177333     0.00000000
 H      1   2   3     1.079663101672   120.80204762   203.79321481
 H      2   1   3     1.097108762457   111.70358445   240.55723251
 H      2   1   3     1.090364788280   111.57283698   121.18266907
 H      1   2   3     1.079613786182   120.84715256    33.58248792

---------------------------
INTERNAL COORDINATES (A.U.)
---------------------------
 C      0   0   0     0.000000000000     0.00000000     0.00000000
 C      1   0   0     2.815955100923     0.00000000     0.00000000
 H      2   1   0     2.060178286694   111.58177333     0.00000000
 H      1   2   3     2.040267579061   120.80204762   203.79321481
 H      2   1   3     2.073235100169   111.70358445   240.55723251
 H      2   1   3     2.060490835920   111.57283698   121.18266907
 H      1   2   3     2.040174386289   120.84715256    33.58248792

---------------------
BASIS SET INFORMATION
---------------------
There are 2 groups of distinct atoms

 Group   1 Type C   : 8s4p1d contracted to 4s2p1d pattern {5111/31/1}
 Group   2 Type H   : 4s contracted to 2s pattern {31}

Atom   0C    basis set group =>   1
Atom   1C    basis set group =>   1
Atom   2H    basis set group =>   2
Atom   3H    basis set group =>   2
Atom   4H    basis set group =>   2
Atom   5H    basis set group =>   2
Atom   6H    basis set group =>   2
---------------------------------
AUXILIARY/J BASIS SET INFORMATION
---------------------------------
There are 2 groups of distinct atoms

 Group   1 Type C   : 12s5p4d2f1g contracted to 6s4p3d1f1g pattern {711111/2111/211/2/1}
 Group   2 Type H   : 5s2p1d contracted to 3s1p1d pattern {311/2/1}

Atom   0C    basis set group =>   1
Atom   1C    basis set group =>   1
Atom   2H    basis set group =>   2
Atom   3H    basis set group =>   2
Atom   4H    basis set group =>   2
Atom   5H    basis set group =>   2
Atom   6H    basis set group =>   2


           ************************************************************
           *        Program running with 4 parallel MPI-processes     *
           *              working on a common directory               *
           ************************************************************
------------------------------------------------------------------------------
                           ORCA GTO INTEGRAL CALCULATION
                           -- RI-GTO INTEGRALS CHOSEN --
------------------------------------------------------------------------------
------------------------------------------------------------------------------
                   ___                                                        
                  /   \      - P O W E R E D   B Y -                         
                 /     \                                                     
                 |  |  |   _    _      __       _____    __    __             
                 |  |  |  | |  | |    /  \     |  _  \  |  |  /  |          
                  \  \/   | |  | |   /    \    | | | |  |  | /  /          
                 / \  \   | |__| |  /  /\  \   | |_| |  |  |/  /          
                |  |  |   |  __  | /  /__\  \  |    /   |      \           
                |  |  |   | |  | | |   __   |  |    \   |  |\   \          
                \     /   | |  | | |  |  |  |  | |\  \  |  | \   \       
                 \___/    |_|  |_| |__|  |__|  |_| \__\ |__|  \__/        
                                                                              
                      - O R C A' S   B I G   F R I E N D -                    
                                      &                                       
                       - I N T E G R A L  F E E D E R -                       
                                                                              
 v1 FN, 2020, v2 2021                                                         
------------------------------------------------------------------------------


Reading SHARK input file pbeh-3c.SHARKINP.tmp ... ok
----------------------
SHARK INTEGRAL PACKAGE
----------------------

Number of atoms                             ...      7
Number of basis functions                   ...     40
Number of shells                            ...     24
Maximum angular momentum                    ...      2
Integral batch strategy                     ... SHARK/LIBINT Hybrid
RI-J (if used) integral strategy            ... SPLIT-RIJ (Revised 2003 algorithm where possible)
Printlevel                                  ...      1
Contraction scheme used                     ... SEGMENTED contraction
Coulomb Range Separation                    ... NOT USED
Exchange Range Separation                   ... NOT USED
Finite Nucleus Model                        ... NOT USED
Auxiliary Coulomb fitting basis             ... AVAILABLE
   # of basis functions in Aux-J            ...    153
   # of shells in Aux-J                     ...     55
   Maximum angular momentum in Aux-J        ...      4
Auxiliary J/K fitting basis                 ... NOT available
Auxiliary Correlation fitting basis         ... NOT available
Auxiliary 'external' fitting basis          ... NOT available
Integral threshold                          ...     2.500000e-11
Primitive cut-off                           ...     2.500000e-12
Primitive pair pre-selection threshold      ...     2.500000e-12

Calculating pre-screening integrals         ... done (  0.0 sec) Dimension = 24
Organizing shell pair data                  ... done (  0.0 sec)
Shell pair information
Total number of shell pairs                 ...       300
Shell pairs after pre-screening             ...       299
Total number of primitive shell pairs       ...      1122
Primitive shell pairs kept                  ...       955
          la=0 lb=0:    170 shell pairs
          la=1 lb=0:     72 shell pairs
          la=1 lb=1:     10 shell pairs
          la=2 lb=0:     36 shell pairs
          la=2 lb=1:      8 shell pairs
          la=2 lb=2:      3 shell pairs

Calculating one electron integrals          ... done (  0.0 sec)
Calculating RI/J V-Matrix + Cholesky decomp.... done (  0.2 sec)
Calculating Nuclear repulsion               ... done (  0.0 sec) ENN=     36.981619100727 Eh

SHARK setup successfully completed in   0.7 seconds

Maximum memory used throughout the entire GTOINT-calculation: 9.0 MB


           ************************************************************
           *        Program running with 4 parallel MPI-processes     *
           *              working on a common directory               *
           ************************************************************
-------------------------------------------------------------------------------
                                 ORCA SCF
-------------------------------------------------------------------------------

------------
SCF SETTINGS
------------
Hamiltonian:
 Density Functional     Method          .... DFT(GTOs)
 Exchange Functional    Exchange        .... PBE
   PBE kappa parameter   XKappa         ....  1.024500
   PBE mue parameter    XMuePBE         ....  0.123457
 Correlation Functional Correlation     .... PBE
   PBE beta parameter  CBetaPBE         ....  0.030000
 LDA part of GGA corr.  LDAOpt          .... PW91-LDA
 Gradients option       PostSCFGGA      .... off
 Hybrid DFT is turned on
   Fraction HF Exchange ScalHFX         ....  0.420000
   Scaling of DF-GGA-X  ScalDFX         ....  0.580000
   Scaling of DF-GGA-C  ScalDFC         ....  1.000000
   Scaling of DF-LDA-C  ScalLDAC        ....  1.000000
   Perturbative correction              ....  0.000000
   Density functional embedding theory  .... OFF
 RI-approximation to the Coulomb term is turned on
   Number of AuxJ basis functions       .... 153
   RIJ-ON(X) (HFX calculated with O(N)) .... on
   Number of AuxJ basis functions       .... 153
   RIJ-COSX (HFX calculated with COS-X)).... on


General Settings:
 Integral files         IntName         .... pbeh-3c
 Hartree-Fock type      HFTyp           .... UHF
 Total Charge           Charge          ....    0
 Multiplicity           Mult            ....    2
 Number of Electrons    NEL             ....   17
 Basis Dimension        Dim             ....   40
 Nuclear Repulsion      ENuc            ....     36.9816191007 Eh

Convergence Acceleration:
 DIIS                   CNVDIIS         .... on
   Start iteration      DIISMaxIt       ....    12
   Startup error        DIISStart       ....  0.200000
   # of expansion vecs  DIISMaxEq       ....     5
   Bias factor          DIISBfac        ....   1.050
   Max. coefficient     DIISMaxC        ....  10.000
 Trust-Rad. Augm. Hess. CNVTRAH         .... auto
   Auto Start mean grad. ratio tolernc. ....  1.125000
   Auto Start start iteration           ....    20
   Auto Start num. interpolation iter.  ....    10
   Max. Number of Micro iterations      ....    16
   Max. Number of Macro iterations      .... Maxiter - #DIIS iter
   Number of Davidson start vectors     ....     2
   Converg. threshold I  (grad. norm)   ....   1.000e-05
   Converg. threshold II (energy diff.) ....   1.000e-08
   Grad. Scal. Fac. for Micro threshold ....   0.100
   Minimum threshold for Micro iter.    ....   0.010
   NR start threshold (gradient norm)   ....   0.001
   Initial trust radius                 ....   0.400
   Minimum AH scaling param. (alpha)    ....   1.000
   Maximum AH scaling param. (alpha)    .... 1000.000
   Orbital update algorithm             .... Taylor
   White noise on init. David. guess    .... on
   Maximum white noise                  ....   0.010
   Quad. conv. algorithm                .... NR
   COSX micro iterations for RIJONX calc.... off
 SOSCF                  CNVSOSCF        .... off
 Level Shifting         CNVShift        .... on
   Level shift para.    LevelShift      ....    0.2500
   Turn off err/grad.   ShiftErr        ....    0.0010
 Zerner damping         CNVZerner       .... off
 Static damping         CNVDamp         .... on
   Fraction old density DampFac         ....    0.7000
   Max. Damping (<1)    DampMax         ....    0.9800
   Min. Damping (>=0)   DampMin         ....    0.0000
   Turn off err/grad.   DampErr         ....    0.1000
 Fernandez-Rico         CNVRico         .... off

SCF Procedure:
 Maximum # iterations   MaxIter         ....   125
 SCF integral mode      SCFMode         .... Direct
   Integral package                     .... SHARK and LIBINT hybrid scheme
 Reset frequency        DirectResetFreq ....    20
 Integral Threshold     Thresh          ....  2.500e-11 Eh
 Primitive CutOff       TCut            ....  2.500e-12 Eh

Convergence Tolerance:
 Convergence Check Mode ConvCheckMode   .... Total+1el-Energy
 Convergence forced     ConvForced      .... 0
 Energy Change          TolE            ....  1.000e-08 Eh
 1-El. energy change                    ....  1.000e-05 Eh
 DIIS Error             TolErr          ....  5.000e-07


Diagonalization of the overlap matrix:
Smallest eigenvalue                        ... 1.193e-02
Time for diagonalization                   ...    0.001 sec
Threshold for overlap eigenvalues          ... 1.000e-08
Number of eigenvalues below threshold      ... 0
Time for construction of square roots      ...    0.010 sec
Total time needed                          ...    0.011 sec

--------------------------------
INITIAL GUESS: MINIMAL BASIS EHT
--------------------------------
The minimal basis has 15 functions
EHT matrix was diagonalized
Basis set overlap was calculated now projecting the orbitals
Using GuessMode=FMatrix for the initial guess
C*T matrix was formed
Effective Fockian was calculated
Effective Fockian was diagonalized
Initial density was built
                      ------------------
                      INITIAL GUESS DONE
                      ------------------
-------------------
DFT GRID GENERATION
-------------------

General Integration Accuracy     IntAcc      ... 4.959
Radial Grid Type                 RadialGrid  ... OptM3 with GC (2021)
Angular Grid (max. ang.)         AngularGrid ... 6 (Lebedev-590)
Angular grid pruning method      GridPruning ... 4 (adaptive)
Weight generation scheme         WeightScheme... Becke
Basis function cutoff            BFCut       ... 1.0000e-11
Integration weight cutoff        WCut        ... 1.0000e-14
Angular grids for H and He will be reduced by one unit
Partially contracted basis set               ... off
Rotationally invariant grid construction     ... off

Total number of grid points                  ...    73629
Total number of batches                      ...     1156
Average number of points per batch           ...       63
Average number of grid points per atom       ...    10518
Time for grid setup =    0.948 sec

--------------------
COSX GRID GENERATION
--------------------

GRIDX 1
-------
General Integration Accuracy     IntAcc      ... 4.020
Radial Grid Type                 RadialGrid  ... OptM3 with GC (2021)
Angular Grid (max. ang.)         AngularGrid ... 2 (Lebedev-110)
Angular grid pruning method      GridPruning ... 4 (adaptive)
Weight generation scheme         WeightScheme... Becke
Basis function cutoff            BFCut       ... 1.0000e-11
Integration weight cutoff        WCut        ... 1.0000e-14
Angular grids for H and He will be reduced by one unit
Partially contracted basis set               ... on
Rotationally invariant grid construction     ... off

Total number of grid points                  ...     7658
Total number of batches                      ...      123
Average number of points per batch           ...       62
Average number of grid points per atom       ...     1094
UseSFitting                                  ... on

GRIDX 2
-------
General Integration Accuracy     IntAcc      ... 4.338
Radial Grid Type                 RadialGrid  ... OptM3 with GC (2021)
Angular Grid (max. ang.)         AngularGrid ... 3 (Lebedev-194)
Angular grid pruning method      GridPruning ... 4 (adaptive)
Weight generation scheme         WeightScheme... Becke
Basis function cutoff            BFCut       ... 1.0000e-11
Integration weight cutoff        WCut        ... 1.0000e-14
Angular grids for H and He will be reduced by one unit
Partially contracted basis set               ... on
Rotationally invariant grid construction     ... off

Total number of grid points                  ...    16818
Total number of batches                      ...      266
Average number of points per batch           ...       63
Average number of grid points per atom       ...     2403
UseSFitting                                  ... on

GRIDX 3
-------
General Integration Accuracy     IntAcc      ... 4.871
Radial Grid Type                 RadialGrid  ... OptM3 with GC (2021)
Angular Grid (max. ang.)         AngularGrid ... 4 (Lebedev-302)
Angular grid pruning method      GridPruning ... 4 (adaptive)
Weight generation scheme         WeightScheme... Becke
Basis function cutoff            BFCut       ... 1.0000e-11
Integration weight cutoff        WCut        ... 1.0000e-14
Angular grids for H and He will be reduced by one unit
Partially contracted basis set               ... on
Rotationally invariant grid construction     ... off

Total number of grid points                  ...    34372
Total number of batches                      ...      541
Average number of points per batch           ...       63
Average number of grid points per atom       ...     4910
UseSFitting                                  ... on

Time for X-Grid setup             =    1.297 sec

--------------
SCF ITERATIONS
--------------
ITER       Energy         Delta-E        Max-DP      RMS-DP      [F,P]     Damp
               ***  Starting incremental Fock matrix formation  ***
  0    -78.8241498999   0.000000000000 0.07795133  0.00228609  0.2035996 0.7000
  1    -78.8700365777  -0.045886677856 0.05576168  0.00167200  0.1447286 0.7000
                               ***Turning on DIIS***
  2    -78.9028400900  -0.032803512294 0.04050574  0.00122531  0.1023932 0.7000
  3    -78.9263127584  -0.023472668431 0.10686435  0.00323406  0.0723208 0.0000
  4    -78.9837642438  -0.057451485353 0.01440144  0.00040817  0.0094441 0.0000
  5    -78.9840220370  -0.000257793196 0.00589693  0.00019351  0.0035817 0.0000
  6    -78.9840747126  -0.000052675591 0.00310592  0.00009687  0.0017338 0.0000
  7    -78.9840853938  -0.000010681218 0.00122884  0.00005249  0.0004394 0.0000
               *** Restarting incremental Fock matrix formation ***
                                   *** Resetting DIIS ***
  8    -78.9840901618  -0.000004768011 0.00026318  0.00001011  0.0000606 0.0000
  9    -78.9840902127  -0.000000050900 0.00006104  0.00000305  0.0000373 0.0000
 10    -78.9840902241  -0.000000011336 0.00007048  0.00000311  0.0000197 0.0000
 11    -78.9840902293  -0.000000005292 0.00000471  0.00000032  0.0000028 0.0000
                 **** Energy Check signals convergence ****

               *****************************************************
               *                     SUCCESS                       *
               *           SCF CONVERGED AFTER  12 CYCLES          *
               *****************************************************

Old exchange energy                            =     -5.089419497 Eh
New exchange energy                            =     -5.089423606 Eh
Exchange energy change after final integration =     -0.000004109 Eh
Total energy after final integration           =    -78.984094338 Eh
Final COS-X integration done in                =     0.673 sec

----------------
TOTAL SCF ENERGY
----------------

Total Energy       :          -78.98409434 Eh           -2149.26647 eV

Components:
Nuclear Repulsion  :           36.98161910 Eh            1006.32102 eV
Electronic Energy  :         -115.96571344 Eh           -3155.58749 eV
One Electron Energy:         -178.06764063 Eh           -4845.46684 eV
Two Electron Energy:           62.10192719 Eh            1689.87935 eV
Max COSX asymmetry :            0.00000018 Eh               0.00000 eV

Virial components:
Potential Energy   :         -157.32440662 Eh           -4281.01475 eV
Kinetic Energy     :           78.34031229 Eh            2131.74827 eV
Virial Ratio       :            2.00821776


DFT components:
N(Alpha)           :        9.000000066972 electrons
N(Beta)            :        7.999999974413 electrons
N(Total)           :       17.000000041385 electrons
E(X)               :       -6.733603162487 Eh       
E(C)               :       -0.690466824874 Eh       
E(XC)              :       -7.424069987361 Eh       
DFET-embed. en.    :        0.000000000000 Eh       

---------------
SCF CONVERGENCE
---------------

  Last Energy change         ...   -3.7639e-10  Tolerance :   1.0000e-08
  Last MAX-Density change    ...    0.0000e+00  Tolerance :   1.0000e-07
  Last RMS-Density change    ...    0.0000e+00  Tolerance :   5.0000e-09
  Last DIIS Error            ...    1.3997e-06  Tolerance :   5.0000e-07

             **** THE GBW FILE WAS UPDATED (pbeh-3c.gbw) ****
             **** DENSITY pbeh-3c.scfp WAS UPDATED ****
             **** ENERGY FILE WAS UPDATED (pbeh-3c.en.tmp) ****
----------------------
UHF SPIN CONTAMINATION
----------------------

Warning: in a DFT calculation there is little theoretical justification to 
         calculate <S**2> as in Hartree-Fock theory. We will do it anyways
         but you should keep in mind that the values have only limited relevance

Expectation value of <S**2>     :     0.755075
Ideal value S*(S+1) for S=0.5   :     0.750000
Deviation                       :     0.005075

             **** THE GBW FILE WAS UPDATED (pbeh-3c.gbw) ****
             **** DENSITY pbeh-3c.scfp WAS UPDATED ****
----------------
ORBITAL ENERGIES
----------------
                 SPIN UP ORBITALS
  NO   OCC          E(Eh)            E(eV) 
   0   1.0000     -10.441937      -284.1396 
   1   1.0000     -10.429277      -283.7950 
   2   1.0000      -0.844567       -22.9818 
   3   1.0000      -0.685134       -18.6434 
   4   1.0000      -0.510176       -13.8826 
   5   1.0000      -0.470938       -12.8149 
   6   1.0000      -0.444918       -12.1068 
   7   1.0000      -0.409237       -11.1359 
   8   1.0000      -0.252089        -6.8597 
   9   0.0000       0.165257         4.4969 
  10   0.0000       0.185538         5.0487 
  11   0.0000       0.199906         5.4397 
  12   0.0000       0.223918         6.0931 
  13   0.0000       0.274229         7.4622 
  14   0.0000       0.275780         7.5044 
  15   0.0000       0.483677        13.1615 
  16   0.0000       0.519918        14.1477 
  17   0.0000       0.533986        14.5305 
  18   0.0000       0.576894        15.6981 
  19   0.0000       0.620563        16.8864 
  20   0.0000       0.647646        17.6233 
  21   0.0000       0.848578        23.0910 
  22   0.0000       0.999295        27.1922 
  23   0.0000       1.002257        27.2728 
  24   0.0000       1.057494        28.7759 
  25   0.0000       1.066542        29.0221 
  26   0.0000       1.082704        29.4619 
  27   0.0000       1.272746        34.6332 
  28   0.0000       1.519354        41.3437 
  29   0.0000       1.707277        46.4574 
  30   0.0000       1.802563        49.0502 
  31   0.0000       1.979415        53.8626 
  32   0.0000       2.044453        55.6324 
  33   0.0000       2.222706        60.4829 
  34   0.0000       2.254450        61.3467 
  35   0.0000       2.411138        65.6104 
  36   0.0000       2.537609        69.0518 
  37   0.0000       2.614761        71.1513 
  38   0.0000      13.519198       367.8761 
  39   0.0000      13.889734       377.9589 

                 SPIN DOWN ORBITALS
  NO   OCC          E(Eh)            E(eV) 
   0   1.0000     -10.430555      -283.8298 
   1   1.0000     -10.425890      -283.7029 
   2   1.0000      -0.822734       -22.3877 
   3   1.0000      -0.653443       -17.7811 
   4   1.0000      -0.502070       -13.6620 
   5   1.0000      -0.451101       -12.2751 
   6   1.0000      -0.435030       -11.8378 
   7   1.0000      -0.404075       -10.9955 
   8   0.0000      -0.000555        -0.0151 
   9   0.0000       0.170686         4.6446 
  10   0.0000       0.201701         5.4886 
  11   0.0000       0.202468         5.5094 
  12   0.0000       0.233231         6.3465 
  13   0.0000       0.280915         7.6441 
  14   0.0000       0.282146         7.6776 
  15   0.0000       0.490167        13.3381 
  16   0.0000       0.522985        14.2311 
  17   0.0000       0.559206        15.2168 
  18   0.0000       0.640691        17.4341 
  19   0.0000       0.647548        17.6207 
  20   0.0000       0.656635        17.8679 
  21   0.0000       0.874722        23.8024 
  22   0.0000       1.002231        27.2721 
  23   0.0000       1.010110        27.4865 
  24   0.0000       1.068276        29.0693 
  25   0.0000       1.080767        29.4092 
  26   0.0000       1.086372        29.5617 
  27   0.0000       1.284978        34.9660 
  28   0.0000       1.548603        42.1396 
  29   0.0000       1.769808        48.1589 
  30   0.0000       1.808461        49.2107 
  31   0.0000       2.004175        54.5364 
  32   0.0000       2.076761        56.5116 
  33   0.0000       2.258880        61.4673 
  34   0.0000       2.269408        61.7537 
  35   0.0000       2.426299        66.0230 
  36   0.0000       2.544669        69.2440 
  37   0.0000       2.627529        71.4987 
  38   0.0000      13.534579       368.2946 
  39   0.0000      13.895907       378.1269 

                    ********************************
                    * MULLIKEN POPULATION ANALYSIS *
                    ********************************

--------------------------------------------
MULLIKEN ATOMIC CHARGES AND SPIN POPULATIONS
--------------------------------------------
   0 C :   -0.433540    1.130203
   1 C :   -0.664825   -0.102096
   2 H :    0.223468    0.014852
   3 H :    0.212887   -0.061241
   4 H :    0.225259    0.063455
   5 H :    0.223595    0.016096
   6 H :    0.213155   -0.061267
Sum of atomic charges         :   -0.0000000
Sum of atomic spin populations:    1.0000000

-----------------------------------------------------
MULLIKEN REDUCED ORBITAL CHARGES AND SPIN POPULATIONS
-----------------------------------------------------
CHARGE
  0 C s       :     3.340404  s :     3.340404
      pz      :     1.007681  p :     3.064224
      px      :     0.951770
      py      :     1.104772
      dz2     :     0.004472  d :     0.028912
      dxz     :     0.002890
      dyz     :     0.000271
      dx2y2   :     0.007753
      dxy     :     0.013527
  1 C s       :     3.378401  s :     3.378401
      pz      :     1.128441  p :     3.247953
      px      :     0.978949
      py      :     1.140564
      dz2     :     0.007391  d :     0.038471
      dxz     :     0.008930
      dyz     :     0.006131
      dx2y2   :     0.008391
      dxy     :     0.007628
  2 H s       :     0.776532  s :     0.776532
  3 H s       :     0.787113  s :     0.787113
  4 H s       :     0.774741  s :     0.774741
  5 H s       :     0.776405  s :     0.776405
  6 H s       :     0.786845  s :     0.786845

SPIN
  0 C s       :     0.105532  s :     0.105532
      pz      :     0.943820  p :     1.027885
      px      :     0.035819
      py      :     0.048246
      dz2     :    -0.003022  d :    -0.003214
      dxz     :     0.000129
      dyz     :    -0.000040
      dx2y2   :    -0.000192
      dxy     :    -0.000089
  1 C s       :    -0.022047  s :    -0.022047
      pz      :    -0.034261  p :    -0.088076
      px      :    -0.043874
      py      :    -0.009941
      dz2     :     0.000694  d :     0.008026
      dxz     :     0.006884
      dyz     :     0.000080
      dx2y2   :     0.000258
      dxy     :     0.000110
  2 H s       :     0.014852  s :     0.014852
  3 H s       :    -0.061241  s :    -0.061241
  4 H s       :     0.063455  s :     0.063455
  5 H s       :     0.016096  s :     0.016096
  6 H s       :    -0.061267  s :    -0.061267


                     *******************************
                     * LOEWDIN POPULATION ANALYSIS *
                     *******************************

-------------------------------------------
LOEWDIN ATOMIC CHARGES AND SPIN POPULATIONS
-------------------------------------------
   0 C :   -0.266089    1.004368
   1 C :   -0.381853   -0.029472
   2 H :    0.132481    0.013116
   3 H :    0.124573   -0.029647
   4 H :    0.133645    0.057067
   5 H :    0.132561    0.014236
   6 H :    0.124682   -0.029669

----------------------------------------------------
LOEWDIN REDUCED ORBITAL CHARGES AND SPIN POPULATIONS
----------------------------------------------------
CHARGE
  0 C s       :     3.010383  s :     3.010383
      pz      :     1.007261  p :     3.201304
      px      :     1.077067
      py      :     1.116975
      dz2     :     0.005402  d :     0.054402
      dxz     :     0.006334
      dyz     :     0.000367
      dx2y2   :     0.016856
      dxy     :     0.025443
  1 C s       :     2.949704  s :     2.949704
      pz      :     1.128439  p :     3.358474
      px      :     1.093005
      py      :     1.137030
      dz2     :     0.013168  d :     0.073675
      dxz     :     0.018308
      dyz     :     0.009745
      dx2y2   :     0.017620
      dxy     :     0.014834
  2 H s       :     0.867519  s :     0.867519
  3 H s       :     0.875427  s :     0.875427
  4 H s       :     0.866355  s :     0.866355
  5 H s       :     0.867439  s :     0.867439
  6 H s       :     0.875318  s :     0.875318

SPIN
  0 C s       :     0.045721  s :     0.045721
      pz      :     0.916016  p :     0.962940
      px      :     0.023365
      py      :     0.023559
      dz2     :    -0.002797  d :    -0.004293
      dxz     :     0.000397
      dyz     :    -0.000053
      dx2y2   :    -0.000958
      dxy     :    -0.000882
  1 C s       :    -0.007431  s :    -0.007431
      pz      :    -0.012147  p :    -0.039766
      px      :    -0.022946
      py      :    -0.004672
      dz2     :     0.001657  d :     0.017725
      dxz     :     0.014267
      dyz     :     0.000159
      dx2y2   :     0.001218
      dxy     :     0.000424
  2 H s       :     0.013116  s :     0.013116
  3 H s       :    -0.029647  s :    -0.029647
  4 H s       :     0.057067  s :     0.057067
  5 H s       :     0.014236  s :     0.014236
  6 H s       :    -0.029669  s :    -0.029669


                      *****************************
                      * MAYER POPULATION ANALYSIS *
                      *****************************

  NA   - Mulliken gross atomic population
  ZA   - Total nuclear charge
  QA   - Mulliken gross atomic charge
  VA   - Mayer's total valence
  BVA  - Mayer's bonded valence
  FA   - Mayer's free valence

  ATOM       NA         ZA         QA         VA         BVA        FA
  0 C      6.4335     6.0000    -0.4335     3.7743     2.8563     0.9180
  1 C      6.6648     6.0000    -0.6648     3.7567     3.7522     0.0045
  2 H      0.7765     1.0000     0.2235     0.9089     0.9087     0.0002
  3 H      0.7871     1.0000     0.2129     0.9233     0.9197     0.0037
  4 H      0.7747     1.0000     0.2253     0.9014     0.8973     0.0040
  5 H      0.7764     1.0000     0.2236     0.9086     0.9084     0.0003
  6 H      0.7868     1.0000     0.2132     0.9233     0.9196     0.0037

  Mayer bond orders larger than 0.100000
B(  0-C ,  1-C ) :   1.0126 B(  0-C ,  3-H ) :   0.9261 B(  0-C ,  6-H ) :   0.9261 
B(  1-C ,  2-H ) :   0.9257 B(  1-C ,  4-H ) :   0.9066 B(  1-C ,  5-H ) :   0.9252 


-------
TIMINGS
-------

Total SCF time: 0 days 0 hours 0 min 53 sec 

Total time                  ....      53.184 sec
Sum of individual times     ....      48.327 sec  ( 90.9%)

Fock matrix formation       ....      40.647 sec  ( 76.4%)
  Split-RI-J                ....       3.849 sec  (  9.5% of F)
  Chain of spheres X        ....       4.453 sec  ( 11.0% of F)
  XC integration            ....      14.451 sec  ( 35.6% of F)
    Basis function eval.    ....       0.521 sec  (  3.6% of XC)
    Density eval.           ....       0.618 sec  (  4.3% of XC)
    XC-Functional eval.     ....       0.717 sec  (  5.0% of XC)
    XC-Potential eval.      ....       0.259 sec  (  1.8% of XC)
Diagonalization             ....       0.663 sec  (  1.2%)
Density matrix formation    ....       0.053 sec  (  0.1%)
Population analysis         ....       1.824 sec  (  3.4%)
Initial guess               ....       0.003 sec  (  0.0%)
Orbital Transformation      ....       0.000 sec  (  0.0%)
Orbital Orthonormalization  ....       0.000 sec  (  0.0%)
DIIS solution               ....       2.893 sec  (  5.4%)
Grid generation             ....       2.245 sec  (  4.2%)

Maximum memory used throughout the entire SCF-calculation: 45.4 MB


-------------------------------------------------------------------------------
                          DFT DISPERSION CORRECTION                            
                                                                               
                              DFTD3 V3.1  Rev 1                                
                          USING Becke-Johnson damping                          
-------------------------------------------------------------------------------
The PBEh-3c composite method is recognized
Using three-body term ABC
Active option DFTDOPT                   ...         4   

molecular C6(AA) [au] = 328.170107 


            DFT-D V3
 parameters
 s6 scaling factor         :     1.0000 
 a1 scaling factor         :     0.4860 
 s8 scaling factor         :     0.0000 
 a2 scaling factor         :     4.5000 
 Damping factor alpha9(ATM):    16.0000 
 ad hoc parameters k1-k3   :    16.0000     1.3333    -4.0000 

 Edisp/kcal,au: -0.988505290551  -0.001575283284 
 E6   /kcal   :  -0.988873926 
 E8   /kcal   :  -0.000000000 
 E6(ABC)      :   0.000368636 
 % E8         :   0.000000000 
 % E6(ABC)    :  -0.037292236 

-------------------------   ----------------
Dispersion correction           -0.001575283
-------------------------   ----------------

------------------   -----------------
gCP correction             0.005725313
------------------   -----------------

-------------------------   --------------------
FINAL SINGLE POINT ENERGY       -78.979944308717
-------------------------   --------------------


                            ***************************************
                            *     ORCA property calculations      *
                            ***************************************

                                    ---------------------
                                    Active property flags
                                    ---------------------
   (+) Dipole Moment


------------------------------------------------------------------------------
                       ORCA ELECTRIC PROPERTIES CALCULATION
------------------------------------------------------------------------------

Dipole Moment Calculation                       ... on
Quadrupole Moment Calculation                   ... off
Polarizability Calculation                      ... off
GBWName                                         ... pbeh-3c.gbw
Electron density                                ... pbeh-3c.scfp
The origin for moment calculation is the CENTER OF MASS  = ( 0.172424,  0.000306 -0.039712)

-------------
DIPOLE MOMENT
-------------
                                X             Y             Z
Electronic contribution:      0.56642       0.00091      -0.08983
Nuclear contribution   :     -0.65411      -0.00116       0.15065
                        -----------------------------------------
Total Dipole Moment    :     -0.08769      -0.00025       0.06083
                        -----------------------------------------
Magnitude (a.u.)       :      0.10672
Magnitude (Debye)      :      0.27127



--------------------
Rotational spectrum 
--------------------
 
Rotational constants in cm-1:     3.475996     0.757664     0.702822 
Rotational constants in MHz : 104207.736300 22714.196561 21070.065579 

 Dipole components along the rotational axes: 
x,y,z [a.u.] :     0.088014    -0.000257     0.060361 
x,y,z [Debye]:     0.223713    -0.000653     0.153424 

 

Timings for individual modules:

Sum of individual times         ...       54.829 sec (=   0.914 min)
GTO integral calculation        ...        1.181 sec (=   0.020 min)   2.2 %
SCF iterations                  ...       53.648 sec (=   0.894 min)  97.8 %
                             ****ORCA TERMINATED NORMALLY****
TOTAL RUN TIME: 0 days 0 hours 1 minutes 4 seconds 871 msec
