
                                 *****************
                                 * O   R   C   A *
                                 *****************

                                            #,                                       
                                            ###                                      
                                            ####                                     
                                            #####                                    
                                            ######                                   
                                           ########,                                 
                                     ,,################,,,,,                         
                               ,,#################################,,                 
                          ,,##########################################,,             
                       ,#########################################, ''#####,          
                    ,#############################################,,   '####,        
                  ,##################################################,,,,####,       
                ,###########''''           ''''###############################       
              ,#####''   ,,,,##########,,,,          '''####'''          '####       
            ,##' ,,,,###########################,,,                        '##       
           ' ,,###''''                  '''############,,,                           
         ,,##''                                '''############,,,,        ,,,,,,###''
      ,#''                                            '''#######################'''  
     '                                                          ''''####''''         
             ,#######,   #######,   ,#######,      ##                                
            ,#'     '#,  ##    ##  ,#'     '#,    #''#        ######   ,####,        
            ##       ##  ##   ,#'  ##            #'  '#       #        #'  '#        
            ##       ##  #######   ##           ,######,      #####,   #    #        
            '#,     ,#'  ##    ##  '#,     ,#' ,#      #,         ##   #,  ,#        
             '#######'   ##     ##  '#######'  #'      '#     #####' # '####'        



                  #######################################################
                  #                        -***-                        #
                  #          Department of theory and spectroscopy      #
                  #    Directorship and core code : Frank Neese         #
                  #        Max Planck Institute fuer Kohlenforschung    #
                  #                Kaiser Wilhelm Platz 1               #
                  #                 D-45470 Muelheim/Ruhr               #
                  #                      Germany                        #
                  #                                                     #
                  #                  All rights reserved                #
                  #                        -***-                        #
                  #######################################################


                         Program Version 5.0.3 -  RELEASE  -


 With contributions from (in alphabetic order):
   Daniel Aravena         : Magnetic Suceptibility
   Michael Atanasov       : Ab Initio Ligand Field Theory (pilot matlab implementation)
   Alexander A. Auer      : GIAO ZORA, VPT2 properties, NMR spectrum
   Ute Becker             : Parallelization
   Giovanni Bistoni       : ED, misc. LED, open-shell LED, HFLD
   Martin Brehm           : Molecular dynamics
   Dmytro Bykov           : SCF Hessian
   Vijay G. Chilkuri      : MRCI spin determinant printing, contributions to CSF-ICE
   Dipayan Datta          : RHF DLPNO-CCSD density
   Achintya Kumar Dutta   : EOM-CC, STEOM-CC
   Dmitry Ganyushin       : Spin-Orbit,Spin-Spin,Magnetic field MRCI
   Miquel Garcia          : C-PCM and meta-GGA Hessian, CC/C-PCM, Gaussian charge scheme
   Yang Guo               : DLPNO-NEVPT2, F12-NEVPT2, CIM, IAO-localization
   Andreas Hansen         : Spin unrestricted coupled pair/coupled cluster methods
   Benjamin Helmich-Paris : MC-RPA, TRAH-SCF, COSX integrals
   Lee Huntington         : MR-EOM, pCC
   Robert Izsak           : Overlap fitted RIJCOSX, COSX-SCS-MP3, EOM
   Marcus Kettner         : VPT2
   Christian Kollmar      : KDIIS, OOCD, Brueckner-CCSD(T), CCSD density, CASPT2, CASPT2-K
   Simone Kossmann        : Meta GGA functionals, TD-DFT gradient, OOMP2, MP2 Hessian
   Martin Krupicka        : Initial AUTO-CI
   Lucas Lang             : DCDCAS
   Marvin Lechner         : AUTO-CI (C++ implementation), FIC-MRCC
   Dagmar Lenk            : GEPOL surface, SMD
   Dimitrios Liakos       : Extrapolation schemes; Compound Job, initial MDCI parallelization
   Dimitrios Manganas     : Further ROCIS development; embedding schemes
   Dimitrios Pantazis     : SARC Basis sets
   Anastasios Papadopoulos: AUTO-CI, single reference methods and gradients
   Taras Petrenko         : DFT Hessian,TD-DFT gradient, ASA, ECA, R-Raman, ABS, FL, XAS/XES, NRVS
   Peter Pinski           : DLPNO-MP2, DLPNO-MP2 Gradient
   Christoph Reimann      : Effective Core Potentials
   Marius Retegan         : Local ZFS, SOC
   Christoph Riplinger    : Optimizer, TS searches, QM/MM, DLPNO-CCSD(T), (RO)-DLPNO pert. Triples
   Tobias Risthaus        : Range-separated hybrids, TD-DFT gradient, RPA, STAB
   Michael Roemelt        : Original ROCIS implementation
   Masaaki Saitow         : Open-shell DLPNO-CCSD energy and density
   Barbara Sandhoefer     : DKH picture change effects
   Avijit Sen             : IP-ROCIS
   Kantharuban Sivalingam : CASSCF convergence, NEVPT2, FIC-MRCI
   Bernardo de Souza      : ESD, SOC TD-DFT
   Georgi Stoychev        : AutoAux, RI-MP2 NMR, DLPNO-MP2 response
   Willem Van den Heuvel  : Paramagnetic NMR
   Boris Wezisla          : Elementary symmetry handling
   Frank Wennmohs         : Technical directorship


 We gratefully acknowledge several colleagues who have allowed us to
 interface, adapt or use parts of their codes:
   Stefan Grimme, W. Hujo, H. Kruse, P. Pracht,  : VdW corrections, initial TS optimization,
                  C. Bannwarth, S. Ehlert          DFT functionals, gCP, sTDA/sTD-DF
   Ed Valeev, F. Pavosevic, A. Kumar             : LibInt (2-el integral package), F12 methods
   Garnet Chan, S. Sharma, J. Yang, R. Olivares  : DMRG
   Ulf Ekstrom                                   : XCFun DFT Library
   Mihaly Kallay                                 : mrcc  (arbitrary order and MRCC methods)
   Jiri Pittner, Ondrej Demel                    : Mk-CCSD
   Frank Weinhold                                : gennbo (NPA and NBO analysis)
   Christopher J. Cramer and Donald G. Truhlar   : smd solvation model
   Lars Goerigk                                  : TD-DFT with DH, B97 family of functionals
   V. Asgeirsson, H. Jonsson                     : NEB implementation
   FAccTs GmbH                                   : IRC, NEB, NEB-TS, DLPNO-Multilevel, CI-OPT
                                                   MM, QMMM, 2- and 3-layer-ONIOM, Crystal-QMMM,
                                                   LR-CPCM, SF, NACMEs, symmetry and pop. for TD-DFT,
                                                   nearIR, NL-DFT gradient (VV10), updates on ESD,
                                                   ML-optimized integration grids
   S Lehtola, MJT Oliveira, MAL Marques          : LibXC Library
   Liviu Ungur et al                             : ANISO software


 Your calculation uses the libint2 library for the computation of 2-el integrals
 For citations please refer to: http://libint.valeyev.net

 Your ORCA version has been built with support for libXC version: 5.1.0
 For citations please refer to: https://tddft.org/programs/libxc/

 This ORCA versions uses:
   CBLAS   interface :  Fast vector & matrix operations
   LAPACKE interface :  Fast linear algebra routines
   SCALAPACK package :  Parallel linear algebra routines
   Shared memory     :  Shared parallel matrices
   BLAS/LAPACK       :  OpenBLAS 0.3.15  USE64BITINT DYNAMIC_ARCH NO_AFFINITY Haswell SINGLE_THREADED
        Core in use  :  Haswell
   Copyright (c) 2011-2014, The OpenBLAS Project




***************************************
The coordinates will be read from file: 40A.xyz
***************************************


Your calculation utilizes the geometrical counterpoise correction gCP
Please cite in your paper:
H.Kruse, S. Grimme J.Chem.Phys., 136, (2012), 154101 
   

Your calculation utilizes the atom-pairwise dispersion correction
with the Becke-Johnson damping scheme (D3BJ)
Cite in your paper:
S.Grimme, S.Ehrlich, L.Goerigk, J Comput Chem, (2011), 32, 1456–1465 
S.Grimme, J.Antony, S.Ehrlich and H.Krieg, J.Chem.Phys., 132, (2010), 154104 
   

Your calculation employs the composite approach PBEh-3c.
Please cite in your paper:
S. Grimme, J. G. Brandenburg, C. Bannwarth, A. Hansen J.Chem.Phys., 143, (2015), 054107 
   

================================================================================

----- Orbital basis set information -----
Your calculation utilizes the basis: def2-mSVP

----- AuxJ basis set information -----
Your calculation utilizes the auxiliary basis: def2/J
   F. Weigend, Phys. Chem. Chem. Phys. 8, 1057 (2006).

================================================================================
                                        WARNINGS
                       Please study these warnings very carefully!
================================================================================


INFO   : the flag for use of the SHARK integral package has been found!

================================================================================
                                       INPUT FILE
================================================================================
NAME = pbeh-3c.inp
|  1> ! PBEh-3c def2/J TightSCF DefGrid3
|  2> 
|  3> %maxcore 60000
|  4> 
|  5> %pal
|  6> nprocs 4
|  7> end
|  8> 
|  9> *xyzfile 0 1 40A.xyz
| 10> 
| 11>                          ****END OF INPUT****
================================================================================

                       ****************************
                       * Single Point Calculation *
                       ****************************

---------------------------------
CARTESIAN COORDINATES (ANGSTROEM)
---------------------------------
  C      1.207100    0.696920    0.000000
  H      2.143864    1.237760    0.000000
  C      1.207100   -0.696920    0.000000
  H      2.143864   -1.237760    0.000000
  C      0.000000   -1.393839    0.000000
  H      0.000000   -2.475521    0.000000
  C     -1.207100   -0.696920    0.000000
  H     -2.143864   -1.237760    0.000000
  C     -1.207100    0.696920    0.000000
  H     -2.143864    1.237760    0.000000
  C      0.000000    1.393839    0.000000
  H      0.000000    2.475521    0.000000

----------------------------
CARTESIAN COORDINATES (A.U.)
----------------------------
  NO LB      ZA    FRAG     MASS         X           Y           Z
   0 C     6.0000    0    12.011    2.281089    1.316987    0.000000
   1 H     1.0000    0     1.008    4.051315    2.339028    0.000000
   2 C     6.0000    0    12.011    2.281089   -1.316987    0.000000
   3 H     1.0000    0     1.008    4.051315   -2.339028    0.000000
   4 C     6.0000    0    12.011    0.000000   -2.633974    0.000000
   5 H     1.0000    0     1.008    0.000000   -4.678056    0.000000
   6 C     6.0000    0    12.011   -2.281089   -1.316987    0.000000
   7 H     1.0000    0     1.008   -4.051315   -2.339028    0.000000
   8 C     6.0000    0    12.011   -2.281089    1.316987    0.000000
   9 H     1.0000    0     1.008   -4.051315    2.339028    0.000000
  10 C     6.0000    0    12.011    0.000000    2.633974    0.000000
  11 H     1.0000    0     1.008    0.000000    4.678056    0.000000

--------------------------------
INTERNAL COORDINATES (ANGSTROEM)
--------------------------------
 C      0   0   0     0.000000000000     0.00000000     0.00000000
 H      1   0   0     1.081681474941     0.00000000     0.00000000
 C      1   2   0     1.393839000000   120.00000382     0.00000000
 H      3   1   2     1.081681474941   120.00000382     0.00000000
 C      3   1   2     1.393839151511   120.00000115   180.00000000
 H      5   3   1     1.081681500000   120.00000115   180.00000085
 C      5   3   1     1.393839151511   119.99999770     0.00000000
 H      7   5   3     1.081681474941   119.99999502   180.00000085
 C      7   5   3     1.393839000000   120.00000115     0.00000000
 H      9   7   5     1.081681474941   120.00000382   180.00000000
 C      1   2   3     1.393839151511   119.99999502   180.00000000
 H     11   1   2     1.081681500000   120.00000115     0.00000000

---------------------------
INTERNAL COORDINATES (A.U.)
---------------------------
 C      0   0   0     0.000000000000     0.00000000     0.00000000
 H      1   0   0     2.044081751774     0.00000000     0.00000000
 C      1   2   0     2.633973984779   120.00000382     0.00000000
 H      3   1   2     2.044081751774   120.00000382     0.00000000
 C      3   1   2     2.633974271092   120.00000115   180.00000000
 H      5   3   1     2.044081799129   120.00000115   180.00000085
 C      5   3   1     2.633974271092   119.99999770     0.00000000
 H      7   5   3     2.044081751774   119.99999502   180.00000085
 C      7   5   3     2.633973984779   120.00000115     0.00000000
 H      9   7   5     2.044081751774   120.00000382   180.00000000
 C      1   2   3     2.633974271092   119.99999502   180.00000000
 H     11   1   2     2.044081799129   120.00000115     0.00000000

---------------------
BASIS SET INFORMATION
---------------------
There are 2 groups of distinct atoms

 Group   1 Type C   : 8s4p1d contracted to 4s2p1d pattern {5111/31/1}
 Group   2 Type H   : 4s contracted to 2s pattern {31}

Atom   0C    basis set group =>   1
Atom   1H    basis set group =>   2
Atom   2C    basis set group =>   1
Atom   3H    basis set group =>   2
Atom   4C    basis set group =>   1
Atom   5H    basis set group =>   2
Atom   6C    basis set group =>   1
Atom   7H    basis set group =>   2
Atom   8C    basis set group =>   1
Atom   9H    basis set group =>   2
Atom  10C    basis set group =>   1
Atom  11H    basis set group =>   2
---------------------------------
AUXILIARY/J BASIS SET INFORMATION
---------------------------------
There are 2 groups of distinct atoms

 Group   1 Type C   : 12s5p4d2f1g contracted to 6s4p3d1f1g pattern {711111/2111/211/2/1}
 Group   2 Type H   : 5s2p1d contracted to 3s1p1d pattern {311/2/1}

Atom   0C    basis set group =>   1
Atom   1H    basis set group =>   2
Atom   2C    basis set group =>   1
Atom   3H    basis set group =>   2
Atom   4C    basis set group =>   1
Atom   5H    basis set group =>   2
Atom   6C    basis set group =>   1
Atom   7H    basis set group =>   2
Atom   8C    basis set group =>   1
Atom   9H    basis set group =>   2
Atom  10C    basis set group =>   1
Atom  11H    basis set group =>   2


           ************************************************************
           *        Program running with 4 parallel MPI-processes     *
           *              working on a common directory               *
           ************************************************************
------------------------------------------------------------------------------
                           ORCA GTO INTEGRAL CALCULATION
                           -- RI-GTO INTEGRALS CHOSEN --
------------------------------------------------------------------------------
------------------------------------------------------------------------------
                   ___                                                        
                  /   \      - P O W E R E D   B Y -                         
                 /     \                                                     
                 |  |  |   _    _      __       _____    __    __             
                 |  |  |  | |  | |    /  \     |  _  \  |  |  /  |          
                  \  \/   | |  | |   /    \    | | | |  |  | /  /          
                 / \  \   | |__| |  /  /\  \   | |_| |  |  |/  /          
                |  |  |   |  __  | /  /__\  \  |    /   |      \           
                |  |  |   | |  | | |   __   |  |    \   |  |\   \          
                \     /   | |  | | |  |  |  |  | |\  \  |  | \   \       
                 \___/    |_|  |_| |__|  |__|  |_| \__\ |__|  \__/        
                                                                              
                      - O R C A' S   B I G   F R I E N D -                    
                                      &                                       
                       - I N T E G R A L  F E E D E R -                       
                                                                              
 v1 FN, 2020, v2 2021                                                         
------------------------------------------------------------------------------


Reading SHARK input file pbeh-3c.SHARKINP.tmp ... ok
----------------------
SHARK INTEGRAL PACKAGE
----------------------

Number of atoms                             ...     12
Number of basis functions                   ...    102
Number of shells                            ...     54
Maximum angular momentum                    ...      2
Integral batch strategy                     ... SHARK/LIBINT Hybrid
RI-J (if used) integral strategy            ... SPLIT-RIJ (Revised 2003 algorithm where possible)
Printlevel                                  ...      1
Contraction scheme used                     ... SEGMENTED contraction
Coulomb Range Separation                    ... NOT USED
Exchange Range Separation                   ... NOT USED
Finite Nucleus Model                        ... NOT USED
Auxiliary Coulomb fitting basis             ... AVAILABLE
   # of basis functions in Aux-J            ...    360
   # of shells in Aux-J                     ...    120
   Maximum angular momentum in Aux-J        ...      4
Auxiliary J/K fitting basis                 ... NOT available
Auxiliary Correlation fitting basis         ... NOT available
Auxiliary 'external' fitting basis          ... NOT available
Integral threshold                          ...     2.500000e-11
Primitive cut-off                           ...     2.500000e-12
Primitive pair pre-selection threshold      ...     2.500000e-12

Calculating pre-screening integrals         ... done (  0.1 sec) Dimension = 54
Organizing shell pair data                  ... done (  0.1 sec)
Shell pair information
Total number of shell pairs                 ...      1485
Shell pairs after pre-screening             ...      1428
Total number of primitive shell pairs       ...      5349
Primitive shell pairs kept                  ...      3915
          la=0 lb=0:    609 shell pairs
          la=1 lb=0:    432 shell pairs
          la=1 lb=1:     78 shell pairs
          la=2 lb=0:    216 shell pairs
          la=2 lb=1:     72 shell pairs
          la=2 lb=2:     21 shell pairs

Calculating one electron integrals          ... done (  0.0 sec)
Calculating RI/J V-Matrix + Cholesky decomp.... done (  1.0 sec)
Calculating Nuclear repulsion               ... done (  0.0 sec) ENN=    203.681383726917 Eh

SHARK setup successfully completed in   2.0 seconds

Maximum memory used throughout the entire GTOINT-calculation: 10.2 MB


           ************************************************************
           *        Program running with 4 parallel MPI-processes     *
           *              working on a common directory               *
           ************************************************************
-------------------------------------------------------------------------------
                                 ORCA SCF
-------------------------------------------------------------------------------

------------
SCF SETTINGS
------------
Hamiltonian:
 Density Functional     Method          .... DFT(GTOs)
 Exchange Functional    Exchange        .... PBE
   PBE kappa parameter   XKappa         ....  1.024500
   PBE mue parameter    XMuePBE         ....  0.123457
 Correlation Functional Correlation     .... PBE
   PBE beta parameter  CBetaPBE         ....  0.030000
 LDA part of GGA corr.  LDAOpt          .... PW91-LDA
 Gradients option       PostSCFGGA      .... off
 Hybrid DFT is turned on
   Fraction HF Exchange ScalHFX         ....  0.420000
   Scaling of DF-GGA-X  ScalDFX         ....  0.580000
   Scaling of DF-GGA-C  ScalDFC         ....  1.000000
   Scaling of DF-LDA-C  ScalLDAC        ....  1.000000
   Perturbative correction              ....  0.000000
   Density functional embedding theory  .... OFF
 RI-approximation to the Coulomb term is turned on
   Number of AuxJ basis functions       .... 360
   RIJ-ON(X) (HFX calculated with O(N)) .... on
   Number of AuxJ basis functions       .... 360
   RIJ-COSX (HFX calculated with COS-X)).... on


General Settings:
 Integral files         IntName         .... pbeh-3c
 Hartree-Fock type      HFTyp           .... RHF
 Total Charge           Charge          ....    0
 Multiplicity           Mult            ....    1
 Number of Electrons    NEL             ....   42
 Basis Dimension        Dim             ....  102
 Nuclear Repulsion      ENuc            ....    203.6813837269 Eh

Convergence Acceleration:
 DIIS                   CNVDIIS         .... on
   Start iteration      DIISMaxIt       ....    12
   Startup error        DIISStart       ....  0.200000
   # of expansion vecs  DIISMaxEq       ....     5
   Bias factor          DIISBfac        ....   1.050
   Max. coefficient     DIISMaxC        ....  10.000
 Trust-Rad. Augm. Hess. CNVTRAH         .... auto
   Auto Start mean grad. ratio tolernc. ....  1.125000
   Auto Start start iteration           ....    20
   Auto Start num. interpolation iter.  ....    10
   Max. Number of Micro iterations      ....    16
   Max. Number of Macro iterations      .... Maxiter - #DIIS iter
   Number of Davidson start vectors     ....     2
   Converg. threshold I  (grad. norm)   ....   1.000e-05
   Converg. threshold II (energy diff.) ....   1.000e-08
   Grad. Scal. Fac. for Micro threshold ....   0.100
   Minimum threshold for Micro iter.    ....   0.010
   NR start threshold (gradient norm)   ....   0.001
   Initial trust radius                 ....   0.400
   Minimum AH scaling param. (alpha)    ....   1.000
   Maximum AH scaling param. (alpha)    .... 1000.000
   Orbital update algorithm             .... Taylor
   White noise on init. David. guess    .... on
   Maximum white noise                  ....   0.010
   Quad. conv. algorithm                .... NR
   COSX micro iterations for RIJONX calc.... off
 SOSCF                  CNVSOSCF        .... on
   Start iteration      SOSCFMaxIt      ....   150
   Startup grad/error   SOSCFStart      ....  0.003300
 Level Shifting         CNVShift        .... on
   Level shift para.    LevelShift      ....    0.2500
   Turn off err/grad.   ShiftErr        ....    0.0010
 Zerner damping         CNVZerner       .... off
 Static damping         CNVDamp         .... on
   Fraction old density DampFac         ....    0.7000
   Max. Damping (<1)    DampMax         ....    0.9800
   Min. Damping (>=0)   DampMin         ....    0.0000
   Turn off err/grad.   DampErr         ....    0.1000
 Fernandez-Rico         CNVRico         .... off

SCF Procedure:
 Maximum # iterations   MaxIter         ....   125
 SCF integral mode      SCFMode         .... Direct
   Integral package                     .... SHARK and LIBINT hybrid scheme
 Reset frequency        DirectResetFreq ....    20
 Integral Threshold     Thresh          ....  2.500e-11 Eh
 Primitive CutOff       TCut            ....  2.500e-12 Eh

Convergence Tolerance:
 Convergence Check Mode ConvCheckMode   .... Total+1el-Energy
 Convergence forced     ConvForced      .... 0
 Energy Change          TolE            ....  1.000e-08 Eh
 1-El. energy change                    ....  1.000e-05 Eh
 Orbital Gradient       TolG            ....  1.000e-05
 Orbital Rotation angle TolX            ....  1.000e-05
 DIIS Error             TolErr          ....  5.000e-07


Diagonalization of the overlap matrix:
Smallest eigenvalue                        ... 4.885e-04
Time for diagonalization                   ...    0.003 sec
Threshold for overlap eigenvalues          ... 1.000e-08
Number of eigenvalues below threshold      ... 0
Time for construction of square roots      ...    0.274 sec
Total time needed                          ...    0.283 sec

--------------------------------
INITIAL GUESS: MINIMAL BASIS EHT
--------------------------------
The minimal basis has 36 functions
EHT matrix was diagonalized
Basis set overlap was calculated now projecting the orbitals
Using GuessMode=FMatrix for the initial guess
C*T matrix was formed
Effective Fockian was calculated
Effective Fockian was diagonalized
Initial density was built
                      ------------------
                      INITIAL GUESS DONE
                      ------------------
-------------------
DFT GRID GENERATION
-------------------

General Integration Accuracy     IntAcc      ... 4.959
Radial Grid Type                 RadialGrid  ... OptM3 with GC (2021)
Angular Grid (max. ang.)         AngularGrid ... 6 (Lebedev-590)
Angular grid pruning method      GridPruning ... 4 (adaptive)
Weight generation scheme         WeightScheme... Becke
Basis function cutoff            BFCut       ... 1.0000e-11
Integration weight cutoff        WCut        ... 1.0000e-14
Angular grids for H and He will be reduced by one unit
Partially contracted basis set               ... off
Rotationally invariant grid construction     ... off

Total number of grid points                  ...   138502
Total number of batches                      ...     2172
Average number of points per batch           ...       63
Average number of grid points per atom       ...    11542
Time for grid setup =    2.607 sec

--------------------
COSX GRID GENERATION
--------------------

GRIDX 1
-------
General Integration Accuracy     IntAcc      ... 4.020
Radial Grid Type                 RadialGrid  ... OptM3 with GC (2021)
Angular Grid (max. ang.)         AngularGrid ... 2 (Lebedev-110)
Angular grid pruning method      GridPruning ... 4 (adaptive)
Weight generation scheme         WeightScheme... Becke
Basis function cutoff            BFCut       ... 1.0000e-11
Integration weight cutoff        WCut        ... 1.0000e-14
Angular grids for H and He will be reduced by one unit
Partially contracted basis set               ... on
Rotationally invariant grid construction     ... off

Total number of grid points                  ...    15456
Total number of batches                      ...      246
Average number of points per batch           ...       62
Average number of grid points per atom       ...     1288
UseSFitting                                  ... on

GRIDX 2
-------
General Integration Accuracy     IntAcc      ... 4.338
Radial Grid Type                 RadialGrid  ... OptM3 with GC (2021)
Angular Grid (max. ang.)         AngularGrid ... 3 (Lebedev-194)
Angular grid pruning method      GridPruning ... 4 (adaptive)
Weight generation scheme         WeightScheme... Becke
Basis function cutoff            BFCut       ... 1.0000e-11
Integration weight cutoff        WCut        ... 1.0000e-14
Angular grids for H and He will be reduced by one unit
Partially contracted basis set               ... on
Rotationally invariant grid construction     ... off

Total number of grid points                  ...    34018
Total number of batches                      ...      536
Average number of points per batch           ...       63
Average number of grid points per atom       ...     2835
UseSFitting                                  ... on

GRIDX 3
-------
General Integration Accuracy     IntAcc      ... 4.871
Radial Grid Type                 RadialGrid  ... OptM3 with GC (2021)
Angular Grid (max. ang.)         AngularGrid ... 4 (Lebedev-302)
Angular grid pruning method      GridPruning ... 4 (adaptive)
Weight generation scheme         WeightScheme... Becke
Basis function cutoff            BFCut       ... 1.0000e-11
Integration weight cutoff        WCut        ... 1.0000e-14
Angular grids for H and He will be reduced by one unit
Partially contracted basis set               ... on
Rotationally invariant grid construction     ... off

Total number of grid points                  ...    65280
Total number of batches                      ...     1028
Average number of points per batch           ...       63
Average number of grid points per atom       ...     5440
UseSFitting                                  ... on

Time for X-Grid setup             =    3.295 sec

--------------
SCF ITERATIONS
--------------
ITER       Energy         Delta-E        Max-DP      RMS-DP      [F,P]     Damp
               ***  Starting incremental Fock matrix formation  ***
  0   -231.1702720661   0.000000000000 0.05780188  0.00412462  0.4068944 0.7000
  1   -231.3321246293  -0.161852563168 0.04161855  0.00304057  0.2871433 0.7000
  2   -231.4490132528  -0.116888623518 0.03047543  0.00224743  0.2015310 0.7000
                               ***Turning on DIIS***
  3   -231.5325948746  -0.083581621820 0.02250110  0.00166198  0.1414458 0.7000
  4   -231.5920854595  -0.059490584827 0.05893796  0.00436217  0.0992774 0.0000
  5   -231.7348852689  -0.142799809406 0.00408464  0.00026472  0.0044201 0.0000
                      *** Initiating the SOSCF procedure ***
                           *** Shutting down DIIS ***
                      *** Re-Reading the Fockian *** 
                      *** Removing any level shift *** 
ITER      Energy       Delta-E        Grad      Rot      Max-DP    RMS-DP
  6   -231.73507476  -0.0001894868  0.001622  0.001622  0.001612  0.000073
               *** Restarting incremental Fock matrix formation ***
  7   -231.73508692  -0.0000121672  0.000328  0.000372  0.000410  0.000024
  8   -231.73508833  -0.0000014110  0.000088  0.000131  0.000143  0.000006
  9   -231.73508837  -0.0000000411  0.000040  0.000030  0.000031  0.000002
 10   -231.73508840  -0.0000000205  0.000003  0.000004  0.000005  0.000000
                 **** Energy Check signals convergence ****
              ***Rediagonalizing the Fockian in SOSCF/NRSCF***

               *****************************************************
               *                     SUCCESS                       *
               *           SCF CONVERGED AFTER  11 CYCLES          *
               *****************************************************

Old exchange energy                            =    -13.945071783 Eh
New exchange energy                            =    -13.945056035 Eh
Exchange energy change after final integration =      0.000015748 Eh
Total energy after final integration           =   -231.735072641 Eh
Final COS-X integration done in                =     2.036 sec

----------------
TOTAL SCF ENERGY
----------------

Total Energy       :         -231.73507264 Eh           -6305.83191 eV

Components:
Nuclear Repulsion  :          203.68138373 Eh            5542.45222 eV
Electronic Energy  :         -435.41645637 Eh          -11848.28413 eV
One Electron Energy:         -714.34813744 Eh          -19438.40105 eV
Two Electron Energy:          278.93168107 Eh            7590.11692 eV
Max COSX asymmetry :            0.00000059 Eh               0.00002 eV

Virial components:
Potential Energy   :         -461.55065947 Eh          -12559.43195 eV
Kinetic Energy     :          229.81558683 Eh            6253.60004 eV
Virial Ratio       :            2.00835229


DFT components:
N(Alpha)           :       21.000000509702 electrons
N(Beta)            :       21.000000509702 electrons
N(Total)           :       42.000001019404 electrons
E(X)               :      -18.509130339751 Eh       
E(C)               :       -1.801039384476 Eh       
E(XC)              :      -20.310169724227 Eh       
DFET-embed. en.    :        0.000000000000 Eh       

---------------
SCF CONVERGENCE
---------------

  Last Energy change         ...    5.7666e-09  Tolerance :   1.0000e-08
  Last MAX-Density change    ...    7.7716e-16  Tolerance :   1.0000e-07
  Last RMS-Density change    ...    3.6869e-17  Tolerance :   5.0000e-09
  Last Orbital Gradient      ...    6.0885e-07  Tolerance :   1.0000e-05
  Last Orbital Rotation      ...    7.5095e-07  Tolerance :   1.0000e-05

             **** THE GBW FILE WAS UPDATED (pbeh-3c.gbw) ****
             **** DENSITY pbeh-3c.scfp WAS UPDATED ****
             **** ENERGY FILE WAS UPDATED (pbeh-3c.en.tmp) ****
             **** THE GBW FILE WAS UPDATED (pbeh-3c.gbw) ****
             **** DENSITY pbeh-3c.scfp WAS UPDATED ****
----------------
ORBITAL ENERGIES
----------------

  NO   OCC          E(Eh)            E(eV) 
   0   2.0000     -10.448762      -284.3253 
   1   2.0000     -10.448543      -284.3193 
   2   2.0000     -10.448541      -284.3193 
   3   2.0000     -10.447930      -284.3026 
   4   2.0000     -10.447928      -284.3026 
   5   2.0000     -10.447700      -284.2964 
   6   2.0000      -0.952111       -25.9083 
   7   2.0000      -0.835470       -22.7343 
   8   2.0000      -0.835470       -22.7343 
   9   2.0000      -0.678970       -18.4757 
  10   2.0000      -0.678969       -18.4757 
  11   2.0000      -0.591977       -16.1085 
  12   2.0000      -0.525882       -14.3100 
  13   2.0000      -0.508465       -13.8360 
  14   2.0000      -0.481762       -13.1094 
  15   2.0000      -0.481760       -13.1094 
  16   2.0000      -0.420880       -11.4527 
  17   2.0000      -0.398301       -10.8383 
  18   2.0000      -0.398300       -10.8383 
  19   2.0000      -0.292480        -7.9588 
  20   2.0000      -0.292477        -7.9587 
  21   0.0000       0.019182         0.5220 
  22   0.0000       0.019184         0.5220 
  23   0.0000       0.140712         3.8290 
  24   0.0000       0.196249         5.3402 
  25   0.0000       0.201738         5.4896 
  26   0.0000       0.201742         5.4897 
  27   0.0000       0.223453         6.0805 
  28   0.0000       0.223457         6.0806 
  29   0.0000       0.254151         6.9158 
  30   0.0000       0.326846         8.8939 
  31   0.0000       0.326857         8.8942 
  32   0.0000       0.328593         8.9415 
  33   0.0000       0.328598         8.9416 
  34   0.0000       0.449645        12.2355 
  35   0.0000       0.519769        14.1436 
  36   0.0000       0.565288        15.3823 
  37   0.0000       0.588317        16.0089 
  38   0.0000       0.588323        16.0091 
  39   0.0000       0.589287        16.0353 
  40   0.0000       0.618951        16.8425 
  41   0.0000       0.618951        16.8425 
  42   0.0000       0.634228        17.2582 
  43   0.0000       0.634231        17.2583 
  44   0.0000       0.640388        17.4258 
  45   0.0000       0.656821        17.8730 
  46   0.0000       0.656829        17.8732 
  47   0.0000       0.676708        18.4142 
  48   0.0000       0.732120        19.9220 
  49   0.0000       0.749739        20.4014 
  50   0.0000       0.942561        25.6484 
  51   0.0000       0.942566        25.6485 
  52   0.0000       0.968368        26.3506 
  53   0.0000       0.968384        26.3511 
  54   0.0000       0.968389        26.3512 
  55   0.0000       1.040513        28.3138 
  56   0.0000       1.040513        28.3138 
  57   0.0000       1.044121        28.4120 
  58   0.0000       1.088712        29.6254 
  59   0.0000       1.088723        29.6257 
  60   0.0000       1.096598        29.8399 
  61   0.0000       1.096613        29.8404 
  62   0.0000       1.170033        31.8382 
  63   0.0000       1.301065        35.4038 
  64   0.0000       1.301068        35.4039 
  65   0.0000       1.306238        35.5445 
  66   0.0000       1.441124        39.2150 
  67   0.0000       1.537589        41.8399 
  68   0.0000       1.537589        41.8399 
  69   0.0000       1.567245        42.6469 
  70   0.0000       1.567245        42.6469 
  71   0.0000       1.581143        43.0251 
  72   0.0000       1.815294        49.3967 
  73   0.0000       1.816997        49.4430 
  74   0.0000       1.902112        51.7591 
  75   0.0000       2.060308        56.0638 
  76   0.0000       2.060309        56.0639 
  77   0.0000       2.135878        58.1202 
  78   0.0000       2.135879        58.1202 
  79   0.0000       2.195605        59.7455 
  80   0.0000       2.195610        59.7456 
  81   0.0000       2.203756        59.9673 
  82   0.0000       2.203757        59.9673 
  83   0.0000       2.372814        64.5675 
  84   0.0000       2.373317        64.5812 
  85   0.0000       2.373317        64.5812 
  86   0.0000       2.582647        70.2774 
  87   0.0000       2.582651        70.2775 
  88   0.0000       2.730445        74.2992 
  89   0.0000       2.742842        74.6365 
  90   0.0000       2.742843        74.6366 
  91   0.0000       2.790310        75.9282 
  92   0.0000       2.790311        75.9282 
  93   0.0000       2.839240        77.2596 
  94   0.0000       3.059576        83.2553 
  95   0.0000       3.451353        93.9161 
  96   0.0000      13.214947       359.5970 
  97   0.0000      13.632040       370.9467 
  98   0.0000      13.632046       370.9468 
  99   0.0000      14.105034       383.8175 
 100   0.0000      14.105041       383.8177 
 101   0.0000      14.543521       395.7493 

                    ********************************
                    * MULLIKEN POPULATION ANALYSIS *
                    ********************************

-----------------------
MULLIKEN ATOMIC CHARGES
-----------------------
   0 C :   -0.219845
   1 H :    0.219844
   2 C :   -0.219845
   3 H :    0.219845
   4 C :   -0.219857
   5 H :    0.219857
   6 C :   -0.219844
   7 H :    0.219845
   8 C :   -0.219845
   9 H :    0.219844
  10 C :   -0.219857
  11 H :    0.219857
Sum of atomic charges:   -0.0000000

--------------------------------
MULLIKEN REDUCED ORBITAL CHARGES
--------------------------------
  0 C s       :     3.246136  s :     3.246136
      pz      :     0.990904  p :     2.934117
      px      :     1.007797
      py      :     0.935417
      dz2     :     0.003845  d :     0.039592
      dxz     :     0.003401
      dyz     :     0.005692
      dx2y2   :     0.012183
      dxy     :     0.014470
  1 H s       :     0.780156  s :     0.780156
  2 C s       :     3.246136  s :     3.246136
      pz      :     0.990904  p :     2.934117
      px      :     1.007797
      py      :     0.935417
      dz2     :     0.003845  d :     0.039592
      dxz     :     0.003401
      dyz     :     0.005692
      dx2y2   :     0.012183
      dxy     :     0.014470
  3 H s       :     0.780155  s :     0.780155
  4 C s       :     3.246130  s :     3.246130
      pz      :     0.990913  p :     2.934136
      px      :     0.899208
      py      :     1.044015
      dz2     :     0.003845  d :     0.039591
      dxz     :     0.006838
      dyz     :     0.002255
      dx2y2   :     0.015614
      dxy     :     0.011039
  5 H s       :     0.780143  s :     0.780143
  6 C s       :     3.246135  s :     3.246135
      pz      :     0.990904  p :     2.934117
      px      :     1.007797
      py      :     0.935417
      dz2     :     0.003845  d :     0.039592
      dxz     :     0.003401
      dyz     :     0.005692
      dx2y2   :     0.012183
      dxy     :     0.014470
  7 H s       :     0.780155  s :     0.780155
  8 C s       :     3.246136  s :     3.246136
      pz      :     0.990904  p :     2.934117
      px      :     1.007797
      py      :     0.935417
      dz2     :     0.003845  d :     0.039592
      dxz     :     0.003401
      dyz     :     0.005692
      dx2y2   :     0.012183
      dxy     :     0.014470
  9 H s       :     0.780156  s :     0.780156
 10 C s       :     3.246129  s :     3.246129
      pz      :     0.990913  p :     2.934137
      px      :     0.899208
      py      :     1.044015
      dz2     :     0.003845  d :     0.039591
      dxz     :     0.006838
      dyz     :     0.002255
      dx2y2   :     0.015614
      dxy     :     0.011039
 11 H s       :     0.780143  s :     0.780143


                     *******************************
                     * LOEWDIN POPULATION ANALYSIS *
                     *******************************

----------------------
LOEWDIN ATOMIC CHARGES
----------------------
   0 C :   -0.135683
   1 H :    0.135686
   2 C :   -0.135683
   3 H :    0.135686
   4 C :   -0.135689
   5 H :    0.135685
   6 C :   -0.135683
   7 H :    0.135686
   8 C :   -0.135683
   9 H :    0.135686
  10 C :   -0.135689
  11 H :    0.135685

-------------------------------
LOEWDIN REDUCED ORBITAL CHARGES
-------------------------------
  0 C s       :     2.894403  s :     2.894403
      pz      :     0.982508  p :     3.151872
      px      :     1.081890
      py      :     1.087473
      dz2     :     0.006275  d :     0.089408
      dxz     :     0.006037
      dyz     :     0.011453
      dx2y2   :     0.030848
      dxy     :     0.034794
  1 H s       :     0.864314  s :     0.864314
  2 C s       :     2.894403  s :     2.894403
      pz      :     0.982508  p :     3.151872
      px      :     1.081890
      py      :     1.087473
      dz2     :     0.006275  d :     0.089408
      dxz     :     0.006037
      dyz     :     0.011453
      dx2y2   :     0.030848
      dxy     :     0.034794
  3 H s       :     0.864314  s :     0.864314
  4 C s       :     2.894404  s :     2.894404
      pz      :     0.982512  p :     3.151877
      px      :     1.090263
      py      :     1.079102
      dz2     :     0.006275  d :     0.089408
      dxz     :     0.014162
      dyz     :     0.003329
      dx2y2   :     0.036767
      dxy     :     0.028875
  5 H s       :     0.864315  s :     0.864315
  6 C s       :     2.894403  s :     2.894403
      pz      :     0.982508  p :     3.151872
      px      :     1.081890
      py      :     1.087473
      dz2     :     0.006275  d :     0.089408
      dxz     :     0.006037
      dyz     :     0.011453
      dx2y2   :     0.030848
      dxy     :     0.034794
  7 H s       :     0.864314  s :     0.864314
  8 C s       :     2.894403  s :     2.894403
      pz      :     0.982508  p :     3.151872
      px      :     1.081890
      py      :     1.087473
      dz2     :     0.006275  d :     0.089408
      dxz     :     0.006037
      dyz     :     0.011453
      dx2y2   :     0.030848
      dxy     :     0.034794
  9 H s       :     0.864314  s :     0.864314
 10 C s       :     2.894404  s :     2.894404
      pz      :     0.982512  p :     3.151877
      px      :     1.090263
      py      :     1.079102
      dz2     :     0.006275  d :     0.089408
      dxz     :     0.014162
      dyz     :     0.003329
      dx2y2   :     0.036767
      dxy     :     0.028875
 11 H s       :     0.864315  s :     0.864315


                      *****************************
                      * MAYER POPULATION ANALYSIS *
                      *****************************

  NA   - Mulliken gross atomic population
  ZA   - Total nuclear charge
  QA   - Mulliken gross atomic charge
  VA   - Mayer's total valence
  BVA  - Mayer's bonded valence
  FA   - Mayer's free valence

  ATOM       NA         ZA         QA         VA         BVA        FA
  0 C      6.2198     6.0000    -0.2198     3.8193     3.8193    -0.0000
  1 H      0.7802     1.0000     0.2198     0.9118     0.9118     0.0000
  2 C      6.2198     6.0000    -0.2198     3.8193     3.8193    -0.0000
  3 H      0.7802     1.0000     0.2198     0.9118     0.9118     0.0000
  4 C      6.2199     6.0000    -0.2199     3.8192     3.8192    -0.0000
  5 H      0.7801     1.0000     0.2199     0.9118     0.9118     0.0000
  6 C      6.2198     6.0000    -0.2198     3.8193     3.8193     0.0000
  7 H      0.7802     1.0000     0.2198     0.9118     0.9118     0.0000
  8 C      6.2198     6.0000    -0.2198     3.8193     3.8193    -0.0000
  9 H      0.7802     1.0000     0.2198     0.9118     0.9118     0.0000
 10 C      6.2199     6.0000    -0.2199     3.8192     3.8192    -0.0000
 11 H      0.7801     1.0000     0.2199     0.9118     0.9118     0.0000

  Mayer bond orders larger than 0.100000
B(  0-C ,  1-H ) :   0.9200 B(  0-C ,  2-C ) :   1.4265 B(  0-C , 10-C ) :   1.4265 
B(  2-C ,  3-H ) :   0.9200 B(  2-C ,  4-C ) :   1.4265 B(  4-C ,  5-H ) :   0.9200 
B(  4-C ,  6-C ) :   1.4265 B(  6-C ,  7-H ) :   0.9200 B(  6-C ,  8-C ) :   1.4265 
B(  8-C ,  9-H ) :   0.9200 B(  8-C , 10-C ) :   1.4265 B( 10-C , 11-H ) :   0.9200 


-------
TIMINGS
-------

Total SCF time: 0 days 0 hours 0 min 58 sec 

Total time                  ....      58.992 sec
Sum of individual times     ....      52.793 sec  ( 89.5%)

Fock matrix formation       ....      43.280 sec  ( 73.4%)
  Split-RI-J                ....       4.677 sec  ( 10.8% of F)
  Chain of spheres X        ....      15.431 sec  ( 35.7% of F)
  XC integration            ....      12.541 sec  ( 29.0% of F)
    Basis function eval.    ....       1.936 sec  ( 15.4% of XC)
    Density eval.           ....       1.276 sec  ( 10.2% of XC)
    XC-Functional eval.     ....       1.313 sec  ( 10.5% of XC)
    XC-Potential eval.      ....       0.828 sec  (  6.6% of XC)
Diagonalization             ....       1.053 sec  (  1.8%)
Density matrix formation    ....       0.003 sec  (  0.0%)
Population analysis         ....       0.359 sec  (  0.6%)
Initial guess               ....       0.007 sec  (  0.0%)
Orbital Transformation      ....       0.000 sec  (  0.0%)
Orbital Orthonormalization  ....       0.000 sec  (  0.0%)
DIIS solution               ....       1.827 sec  (  3.1%)
SOSCF solution              ....       0.362 sec  (  0.6%)
Grid generation             ....       5.903 sec  ( 10.0%)

Maximum memory used throughout the entire SCF-calculation: 50.8 MB


-------------------------------------------------------------------------------
                          DFT DISPERSION CORRECTION                            
                                                                               
                              DFTD3 V3.1  Rev 1                                
                          USING Becke-Johnson damping                          
-------------------------------------------------------------------------------
The PBEh-3c composite method is recognized
Using three-body term ABC
Active option DFTDOPT                   ...         4   

molecular C6(AA) [au] = 1659.145440 


            DFT-D V3
 parameters
 s6 scaling factor         :     1.0000 
 a1 scaling factor         :     0.4860 
 s8 scaling factor         :     0.0000 
 a2 scaling factor         :     4.5000 
 Damping factor alpha9(ATM):    16.0000 
 ad hoc parameters k1-k3   :    16.0000     1.3333    -4.0000 

 Edisp/kcal,au: -3.690072651277  -0.005880504455 
 E6   /kcal   :  -3.696005029 
 E8   /kcal   :  -0.000000000 
 E6(ABC)      :   0.005932378 
 % E8         :   0.000000000 
 % E6(ABC)    :  -0.160765876 

-------------------------   ----------------
Dispersion correction           -0.005880504
-------------------------   ----------------

------------------   -----------------
gCP correction             0.015152205
------------------   -----------------

-------------------------   --------------------
FINAL SINGLE POINT ENERGY      -231.725800940874
-------------------------   --------------------


                            ***************************************
                            *     ORCA property calculations      *
                            ***************************************

                                    ---------------------
                                    Active property flags
                                    ---------------------
   (+) Dipole Moment


------------------------------------------------------------------------------
                       ORCA ELECTRIC PROPERTIES CALCULATION
------------------------------------------------------------------------------

Dipole Moment Calculation                       ... on
Quadrupole Moment Calculation                   ... off
Polarizability Calculation                      ... off
GBWName                                         ... pbeh-3c.gbw
Electron density                                ... pbeh-3c.scfp
The origin for moment calculation is the CENTER OF MASS  = ( 0.000000,  0.000000  0.000000)

-------------
DIPOLE MOMENT
-------------
                                X             Y             Z
Electronic contribution:     -0.00000      -0.00000       0.00000
Nuclear contribution   :      0.00000      -0.00000       0.00000
                        -----------------------------------------
Total Dipole Moment    :     -0.00000      -0.00000       0.00000
                        -----------------------------------------
Magnitude (a.u.)       :      0.00000
Magnitude (Debye)      :      0.00000



--------------------
Rotational spectrum 
--------------------
 
Rotational constants in cm-1:     0.190404     0.190404     0.095202 
Rotational constants in MHz :  5708.171602  5708.171187  2854.085697 

 Dipole components along the rotational axes: 
x,y,z [a.u.] :    -0.000000    -0.000000     0.000000 
x,y,z [Debye]:    -0.000000    -0.000000     0.000000 

 

Timings for individual modules:

Sum of individual times         ...       62.952 sec (=   1.049 min)
GTO integral calculation        ...        2.902 sec (=   0.048 min)   4.6 %
SCF iterations                  ...       60.050 sec (=   1.001 min)  95.4 %
                             ****ORCA TERMINATED NORMALLY****
TOTAL RUN TIME: 0 days 0 hours 1 minutes 4 seconds 722 msec
