
                                 *****************
                                 * O   R   C   A *
                                 *****************

                                            #,                                       
                                            ###                                      
                                            ####                                     
                                            #####                                    
                                            ######                                   
                                           ########,                                 
                                     ,,################,,,,,                         
                               ,,#################################,,                 
                          ,,##########################################,,             
                       ,#########################################, ''#####,          
                    ,#############################################,,   '####,        
                  ,##################################################,,,,####,       
                ,###########''''           ''''###############################       
              ,#####''   ,,,,##########,,,,          '''####'''          '####       
            ,##' ,,,,###########################,,,                        '##       
           ' ,,###''''                  '''############,,,                           
         ,,##''                                '''############,,,,        ,,,,,,###''
      ,#''                                            '''#######################'''  
     '                                                          ''''####''''         
             ,#######,   #######,   ,#######,      ##                                
            ,#'     '#,  ##    ##  ,#'     '#,    #''#        ######   ,####,        
            ##       ##  ##   ,#'  ##            #'  '#       #        #'  '#        
            ##       ##  #######   ##           ,######,      #####,   #    #        
            '#,     ,#'  ##    ##  '#,     ,#' ,#      #,         ##   #,  ,#        
             '#######'   ##     ##  '#######'  #'      '#     #####' # '####'        



                  #######################################################
                  #                        -***-                        #
                  #          Department of theory and spectroscopy      #
                  #    Directorship and core code : Frank Neese         #
                  #        Max Planck Institute fuer Kohlenforschung    #
                  #                Kaiser Wilhelm Platz 1               #
                  #                 D-45470 Muelheim/Ruhr               #
                  #                      Germany                        #
                  #                                                     #
                  #                  All rights reserved                #
                  #                        -***-                        #
                  #######################################################


                         Program Version 5.0.3 -  RELEASE  -


 With contributions from (in alphabetic order):
   Daniel Aravena         : Magnetic Suceptibility
   Michael Atanasov       : Ab Initio Ligand Field Theory (pilot matlab implementation)
   Alexander A. Auer      : GIAO ZORA, VPT2 properties, NMR spectrum
   Ute Becker             : Parallelization
   Giovanni Bistoni       : ED, misc. LED, open-shell LED, HFLD
   Martin Brehm           : Molecular dynamics
   Dmytro Bykov           : SCF Hessian
   Vijay G. Chilkuri      : MRCI spin determinant printing, contributions to CSF-ICE
   Dipayan Datta          : RHF DLPNO-CCSD density
   Achintya Kumar Dutta   : EOM-CC, STEOM-CC
   Dmitry Ganyushin       : Spin-Orbit,Spin-Spin,Magnetic field MRCI
   Miquel Garcia          : C-PCM and meta-GGA Hessian, CC/C-PCM, Gaussian charge scheme
   Yang Guo               : DLPNO-NEVPT2, F12-NEVPT2, CIM, IAO-localization
   Andreas Hansen         : Spin unrestricted coupled pair/coupled cluster methods
   Benjamin Helmich-Paris : MC-RPA, TRAH-SCF, COSX integrals
   Lee Huntington         : MR-EOM, pCC
   Robert Izsak           : Overlap fitted RIJCOSX, COSX-SCS-MP3, EOM
   Marcus Kettner         : VPT2
   Christian Kollmar      : KDIIS, OOCD, Brueckner-CCSD(T), CCSD density, CASPT2, CASPT2-K
   Simone Kossmann        : Meta GGA functionals, TD-DFT gradient, OOMP2, MP2 Hessian
   Martin Krupicka        : Initial AUTO-CI
   Lucas Lang             : DCDCAS
   Marvin Lechner         : AUTO-CI (C++ implementation), FIC-MRCC
   Dagmar Lenk            : GEPOL surface, SMD
   Dimitrios Liakos       : Extrapolation schemes; Compound Job, initial MDCI parallelization
   Dimitrios Manganas     : Further ROCIS development; embedding schemes
   Dimitrios Pantazis     : SARC Basis sets
   Anastasios Papadopoulos: AUTO-CI, single reference methods and gradients
   Taras Petrenko         : DFT Hessian,TD-DFT gradient, ASA, ECA, R-Raman, ABS, FL, XAS/XES, NRVS
   Peter Pinski           : DLPNO-MP2, DLPNO-MP2 Gradient
   Christoph Reimann      : Effective Core Potentials
   Marius Retegan         : Local ZFS, SOC
   Christoph Riplinger    : Optimizer, TS searches, QM/MM, DLPNO-CCSD(T), (RO)-DLPNO pert. Triples
   Tobias Risthaus        : Range-separated hybrids, TD-DFT gradient, RPA, STAB
   Michael Roemelt        : Original ROCIS implementation
   Masaaki Saitow         : Open-shell DLPNO-CCSD energy and density
   Barbara Sandhoefer     : DKH picture change effects
   Avijit Sen             : IP-ROCIS
   Kantharuban Sivalingam : CASSCF convergence, NEVPT2, FIC-MRCI
   Bernardo de Souza      : ESD, SOC TD-DFT
   Georgi Stoychev        : AutoAux, RI-MP2 NMR, DLPNO-MP2 response
   Willem Van den Heuvel  : Paramagnetic NMR
   Boris Wezisla          : Elementary symmetry handling
   Frank Wennmohs         : Technical directorship


 We gratefully acknowledge several colleagues who have allowed us to
 interface, adapt or use parts of their codes:
   Stefan Grimme, W. Hujo, H. Kruse, P. Pracht,  : VdW corrections, initial TS optimization,
                  C. Bannwarth, S. Ehlert          DFT functionals, gCP, sTDA/sTD-DF
   Ed Valeev, F. Pavosevic, A. Kumar             : LibInt (2-el integral package), F12 methods
   Garnet Chan, S. Sharma, J. Yang, R. Olivares  : DMRG
   Ulf Ekstrom                                   : XCFun DFT Library
   Mihaly Kallay                                 : mrcc  (arbitrary order and MRCC methods)
   Jiri Pittner, Ondrej Demel                    : Mk-CCSD
   Frank Weinhold                                : gennbo (NPA and NBO analysis)
   Christopher J. Cramer and Donald G. Truhlar   : smd solvation model
   Lars Goerigk                                  : TD-DFT with DH, B97 family of functionals
   V. Asgeirsson, H. Jonsson                     : NEB implementation
   FAccTs GmbH                                   : IRC, NEB, NEB-TS, DLPNO-Multilevel, CI-OPT
                                                   MM, QMMM, 2- and 3-layer-ONIOM, Crystal-QMMM,
                                                   LR-CPCM, SF, NACMEs, symmetry and pop. for TD-DFT,
                                                   nearIR, NL-DFT gradient (VV10), updates on ESD,
                                                   ML-optimized integration grids
   S Lehtola, MJT Oliveira, MAL Marques          : LibXC Library
   Liviu Ungur et al                             : ANISO software


 Your calculation uses the libint2 library for the computation of 2-el integrals
 For citations please refer to: http://libint.valeyev.net

 Your ORCA version has been built with support for libXC version: 5.1.0
 For citations please refer to: https://tddft.org/programs/libxc/

 This ORCA versions uses:
   CBLAS   interface :  Fast vector & matrix operations
   LAPACKE interface :  Fast linear algebra routines
   SCALAPACK package :  Parallel linear algebra routines
   Shared memory     :  Shared parallel matrices
   BLAS/LAPACK       :  OpenBLAS 0.3.15  USE64BITINT DYNAMIC_ARCH NO_AFFINITY Haswell SINGLE_THREADED
        Core in use  :  Haswell
   Copyright (c) 2011-2014, The OpenBLAS Project




***************************************
The coordinates will be read from file: 7.xyz
***************************************


Your calculation utilizes the geometrical counterpoise correction gCP
Please cite in your paper:
H.Kruse, S. Grimme J.Chem.Phys., 136, (2012), 154101 
   

Your calculation utilizes the atom-pairwise dispersion correction
with the Becke-Johnson damping scheme (D3BJ)
Cite in your paper:
S.Grimme, S.Ehrlich, L.Goerigk, J Comput Chem, (2011), 32, 1456–1465 
S.Grimme, J.Antony, S.Ehrlich and H.Krieg, J.Chem.Phys., 132, (2010), 154104 
   

Your calculation employs the composite approach PBEh-3c.
Please cite in your paper:
S. Grimme, J. G. Brandenburg, C. Bannwarth, A. Hansen J.Chem.Phys., 143, (2015), 054107 
   

================================================================================

----- Orbital basis set information -----
Your calculation utilizes the basis: def2-mSVP

----- AuxJ basis set information -----
Your calculation utilizes the auxiliary basis: def2/J
   F. Weigend, Phys. Chem. Chem. Phys. 8, 1057 (2006).

================================================================================
                                        WARNINGS
                       Please study these warnings very carefully!
================================================================================


INFO   : the flag for use of the SHARK integral package has been found!

================================================================================
                                       INPUT FILE
================================================================================
NAME = pbeh-3c.inp
|  1> ! PBEh-3c def2/J TightSCF DefGrid3
|  2> 
|  3> %maxcore 60000
|  4> 
|  5> %pal
|  6> nprocs 4
|  7> end
|  8> 
|  9> *xyzfile 0 1 7.xyz
| 10> 
| 11>                          ****END OF INPUT****
================================================================================

                       ****************************
                       * Single Point Calculation *
                       ****************************

---------------------------------
CARTESIAN COORDINATES (ANGSTROEM)
---------------------------------
  N      0.444232    3.034583    0.427378
  C      1.533475    2.467234   -0.193801
  C      1.189058    1.238421   -0.717499
  C     -0.201215    1.043323   -0.406496
  C     -1.112640   -0.005573   -0.660271
  C     -2.410597    0.119477   -0.188281
  C     -2.824563    1.278000    0.515934
  C     -1.950324    2.316541    0.769581
  C     -0.633513    2.185641    0.306644
  H      0.426984    3.942590    0.854060
  H      2.479577    2.983559   -0.226490
  H     -0.790872   -0.887614   -1.190177
  H     -3.849399    1.319715    0.857752
  H     -2.277350    3.193548    1.313209
  O     -3.385355   -0.825082   -0.340506
  C     -2.979145   -2.055665   -0.928293
  H     -2.673866   -1.911142   -1.967810
  H     -2.164650   -2.511207   -0.363513
  H     -3.853937   -2.698383   -0.900660
  C      2.127111    0.309510   -1.425581
  C      2.656177   -0.836611   -0.545392
  N      1.658984   -1.841319   -0.229450
  C      0.897952   -1.971697    0.899895
  C      1.229325   -1.065197    2.065182
  H      1.645407   -0.122041   -2.307724
  H      2.988522    0.878566   -1.785913
  H      3.482219   -1.331179   -1.061859
  H      3.054508   -0.430629    0.382201
  H      1.377416   -2.466201   -0.969095
  O      0.002421   -2.805924    0.955327
  H      2.252242   -1.228343    2.406376
  H      1.121852   -0.017852    1.785323
  H      0.539970   -1.299052    2.869954

----------------------------
CARTESIAN COORDINATES (A.U.)
----------------------------
  NO LB      ZA    FRAG     MASS         X           Y           Z
   0 N     7.0000    0    14.007    0.839476    5.734531    0.807626
   1 C     6.0000    0    12.011    2.897847    4.662396   -0.366232
   2 C     6.0000    0    12.011    2.246993    2.340277   -1.355877
   3 C     6.0000    0    12.011   -0.380242    1.971595   -0.768167
   4 C     6.0000    0    12.011   -2.102585   -0.010531   -1.247732
   5 C     6.0000    0    12.011   -4.555368    0.225779   -0.355800
   6 C     6.0000    0    12.011   -5.337651    2.415070    0.974975
   7 C     6.0000    0    12.011   -3.685578    4.377628    1.454296
   8 C     6.0000    0    12.011   -1.197166    4.130263    0.579474
   9 H     1.0000    0     1.008    0.806882    7.450415    1.613940
  10 H     1.0000    0     1.008    4.685721    5.638109   -0.428005
  11 H     1.0000    0     1.008   -1.494532   -1.677347   -2.249109
  12 H     1.0000    0     1.008   -7.274310    2.493900    1.620917
  13 H     1.0000    0     1.008   -4.303568    6.034931    2.481604
  14 O     8.0000    0    15.999   -6.397394   -1.559179   -0.643464
  15 C     6.0000    0    12.011   -5.629768   -3.884643   -1.754220
  16 H     1.0000    0     1.008   -5.052875   -3.611535   -3.718623
  17 H     1.0000    0     1.008   -4.090596   -4.745493   -0.686941
  18 H     1.0000    0     1.008   -7.282885   -5.099204   -1.702001
  19 C     6.0000    0    12.011    4.019656    0.584889   -2.693958
  20 C     6.0000    0    12.011    5.019446   -1.580965   -1.030642
  21 N     7.0000    0    14.007    3.135025   -3.479588   -0.433598
  22 C     6.0000    0    12.011    1.696883   -3.725967    1.700554
  23 C     6.0000    0    12.011    2.323087   -2.012930    3.902629
  24 H     1.0000    0     1.008    3.109368   -0.230624   -4.360967
  25 H     1.0000    0     1.008    5.647489    1.660249   -3.374887
  26 H     1.0000    0     1.008    6.580439   -2.515563   -2.006623
  27 H     1.0000    0     1.008    5.772185   -0.813771    0.722256
  28 H     1.0000    0     1.008    2.602938   -4.660444   -1.831325
  29 O     8.0000    0    15.999    0.004575   -5.302427    1.805307
  30 H     1.0000    0     1.008    4.256120   -2.321231    4.547392
  31 H     1.0000    0     1.008    2.119992   -0.033735    3.373772
  32 H     1.0000    0     1.008    1.020395   -2.454852    5.423428

--------------------------------
INTERNAL COORDINATES (ANGSTROEM)
--------------------------------
 N      0   0   0     0.000000000000     0.00000000     0.00000000
 C      1   0   0     1.376298735307     0.00000000     0.00000000
 C      2   1   0     1.379443271547   109.93539955     0.00000000
 C      3   2   1     1.437930746624   106.26948689     0.42010713
 C      4   3   2     1.412543765795   133.29414817   180.52992335
 C      5   4   3     1.386760317019   118.41215761   178.82052776
 C      6   5   4     1.417555328726   121.07140963     0.89812062
 C      7   6   5     1.381013087759   121.39756105   359.33647734
 C      1   2   3     1.377248360365   109.00532838   359.46415222
 H      1   2   3     1.003410387848   125.34950511   182.58117793
 H      2   1   3     1.078317703995   120.70960327   179.51282031
 H      5   4   3     1.078114633948   120.21469291     0.14990024
 H      7   6   5     1.081142226187   117.73722665   179.86416605
 H      8   7   6     1.082413361479   120.68326328   180.33977188
 O      6   5   4     1.365839345867   124.58823287   181.21949598
 C     15   6   5     1.422966758305   116.12746331     5.48433518
 H     16  15   6     1.093013032722   110.99199216   294.11908543
 H     16  15   6     1.090823914838   111.12684492    56.64131811
 H     16  15   6     1.085868742037   105.74647396   175.91463423
 C      3   2   1     1.498065025979   125.13225692   182.09195629
 C     20   3   2     1.538907607848   114.00016573    99.73990236
 N     21  20   3     1.450396977340   113.83649507    71.27048139
 C     22  21  20     1.368059895932   128.92493390   262.08669377
 C     23  22  21     1.513091604965   117.18276624   351.72816776
 H     20   3   2     1.093824074172   110.49184091   222.35416719
 H     20   3   2     1.093478009355   109.04730746   339.26361240
 H     21  20   3     1.092557041654   109.06793870   191.96053535
 H     21  20   3     1.088080901865   109.60721321   308.99894871
 H     22  21  20     1.008381176581   117.48165690    72.76061976
 O     23  22  21     1.225146085586   120.58827301   172.76072911
 H     24  23  22     1.090591099935   110.89955935   299.73757671
 H     24  23  22     1.089404812348   110.88706131    60.30736206
 H     24  23  22     1.085152656579   107.63280257   180.14644055

---------------------------
INTERNAL COORDINATES (A.U.)
---------------------------
 N      0   0   0     0.000000000000     0.00000000     0.00000000
 C      1   0   0     2.600827688192     0.00000000     0.00000000
 C      2   1   0     2.606770000504   109.93539955     0.00000000
 C      3   2   1     2.717295310665   106.26948689     0.42010713
 C      4   3   2     2.669320869531   133.29414817   180.52992335
 C      5   4   3     2.620597212555   118.41215761   178.82052776
 C      6   5   4     2.678791350973   121.07140963     0.89812062
 C      7   6   5     2.609736523226   121.39756105   359.33647734
 C      1   2   3     2.602622219483   109.00532838   359.46415222
 H      1   2   3     1.896170832964   125.34950511   182.58117793
 H      2   1   3     2.037725145910   120.70960327   179.51282031
 H      5   4   3     2.037341399134   120.21469291     0.14990024
 H      7   6   5     2.043062719312   117.73722665   179.86416605
 H      8   7   6     2.045464816893   120.68326328   180.33977188
 O      6   5   4     2.581062306623   124.58823287   181.21949598
 C     15   6   5     2.689017470870   116.12746331     5.48433518
 H     16  15   6     2.065495292651   110.99199216   294.11908543
 H     16  15   6     2.061358459375   111.12684492    56.64131811
 H     16  15   6     2.051994539836   105.74647396   175.91463423
 C      3   2   1     2.830932629906   125.13225692   182.09195629
 C     20   3   2     2.908113924241   114.00016573    99.73990236
 N     21  20   3     2.740853072640   113.83649507    71.27048139
 C     22  21  20     2.585258538112   128.92493390   262.08669377
 C     23  22  21     2.859328748919   117.18276624   351.72816776
 H     20   3   2     2.067027938874   110.49184091   222.35416719
 H     20   3   2     2.066373971147   109.04730746   339.26361240
 H     21  20   3     2.064633594414   109.06793870   191.96053535
 H     21  20   3     2.056174916074   109.60721321   308.99894871
 H     22  21  20     1.905564262340   117.48165690    72.76061976
 O     23  22  21     2.315190575804   120.58827301   172.76072911
 H     24  23  22     2.060918502969   110.89955935   299.73757671
 H     24  23  22     2.058676744313   110.88706131    60.30736206
 H     24  23  22     2.050641334431   107.63280257   180.14644055

---------------------
BASIS SET INFORMATION
---------------------
There are 4 groups of distinct atoms

 Group   1 Type N   : 8s4p1d contracted to 4s2p1d pattern {5111/31/1}
 Group   2 Type C   : 8s4p1d contracted to 4s2p1d pattern {5111/31/1}
 Group   3 Type H   : 4s contracted to 2s pattern {31}
 Group   4 Type O   : 8s4p1d contracted to 4s2p1d pattern {5111/31/1}

Atom   0N    basis set group =>   1
Atom   1C    basis set group =>   2
Atom   2C    basis set group =>   2
Atom   3C    basis set group =>   2
Atom   4C    basis set group =>   2
Atom   5C    basis set group =>   2
Atom   6C    basis set group =>   2
Atom   7C    basis set group =>   2
Atom   8C    basis set group =>   2
Atom   9H    basis set group =>   3
Atom  10H    basis set group =>   3
Atom  11H    basis set group =>   3
Atom  12H    basis set group =>   3
Atom  13H    basis set group =>   3
Atom  14O    basis set group =>   4
Atom  15C    basis set group =>   2
Atom  16H    basis set group =>   3
Atom  17H    basis set group =>   3
Atom  18H    basis set group =>   3
Atom  19C    basis set group =>   2
Atom  20C    basis set group =>   2
Atom  21N    basis set group =>   1
Atom  22C    basis set group =>   2
Atom  23C    basis set group =>   2
Atom  24H    basis set group =>   3
Atom  25H    basis set group =>   3
Atom  26H    basis set group =>   3
Atom  27H    basis set group =>   3
Atom  28H    basis set group =>   3
Atom  29O    basis set group =>   4
Atom  30H    basis set group =>   3
Atom  31H    basis set group =>   3
Atom  32H    basis set group =>   3
---------------------------------
AUXILIARY/J BASIS SET INFORMATION
---------------------------------
There are 4 groups of distinct atoms

 Group   1 Type N   : 12s5p4d2f1g contracted to 6s4p3d1f1g pattern {711111/2111/211/2/1}
 Group   2 Type C   : 12s5p4d2f1g contracted to 6s4p3d1f1g pattern {711111/2111/211/2/1}
 Group   3 Type H   : 5s2p1d contracted to 3s1p1d pattern {311/2/1}
 Group   4 Type O   : 12s5p4d2f1g contracted to 6s4p3d1f1g pattern {711111/2111/211/2/1}

Atom   0N    basis set group =>   1
Atom   1C    basis set group =>   2
Atom   2C    basis set group =>   2
Atom   3C    basis set group =>   2
Atom   4C    basis set group =>   2
Atom   5C    basis set group =>   2
Atom   6C    basis set group =>   2
Atom   7C    basis set group =>   2
Atom   8C    basis set group =>   2
Atom   9H    basis set group =>   3
Atom  10H    basis set group =>   3
Atom  11H    basis set group =>   3
Atom  12H    basis set group =>   3
Atom  13H    basis set group =>   3
Atom  14O    basis set group =>   4
Atom  15C    basis set group =>   2
Atom  16H    basis set group =>   3
Atom  17H    basis set group =>   3
Atom  18H    basis set group =>   3
Atom  19C    basis set group =>   2
Atom  20C    basis set group =>   2
Atom  21N    basis set group =>   1
Atom  22C    basis set group =>   2
Atom  23C    basis set group =>   2
Atom  24H    basis set group =>   3
Atom  25H    basis set group =>   3
Atom  26H    basis set group =>   3
Atom  27H    basis set group =>   3
Atom  28H    basis set group =>   3
Atom  29O    basis set group =>   4
Atom  30H    basis set group =>   3
Atom  31H    basis set group =>   3
Atom  32H    basis set group =>   3


           ************************************************************
           *        Program running with 4 parallel MPI-processes     *
           *              working on a common directory               *
           ************************************************************
------------------------------------------------------------------------------
                           ORCA GTO INTEGRAL CALCULATION
                           -- RI-GTO INTEGRALS CHOSEN --
------------------------------------------------------------------------------
------------------------------------------------------------------------------
                   ___                                                        
                  /   \      - P O W E R E D   B Y -                         
                 /     \                                                     
                 |  |  |   _    _      __       _____    __    __             
                 |  |  |  | |  | |    /  \     |  _  \  |  |  /  |          
                  \  \/   | |  | |   /    \    | | | |  |  | /  /          
                 / \  \   | |__| |  /  /\  \   | |_| |  |  |/  /          
                |  |  |   |  __  | /  /__\  \  |    /   |      \           
                |  |  |   | |  | | |   __   |  |    \   |  |\   \          
                \     /   | |  | | |  |  |  |  | |\  \  |  | \   \       
                 \___/    |_|  |_| |__|  |__|  |_| \__\ |__|  \__/        
                                                                              
                      - O R C A' S   B I G   F R I E N D -                    
                                      &                                       
                       - I N T E G R A L  F E E D E R -                       
                                                                              
 v1 FN, 2020, v2 2021                                                         
------------------------------------------------------------------------------


Reading SHARK input file pbeh-3c.SHARKINP.tmp ... ok
----------------------
SHARK INTEGRAL PACKAGE
----------------------

Number of atoms                             ...     33
Number of basis functions                   ...    287
Number of shells                            ...    151
Maximum angular momentum                    ...      2
Integral batch strategy                     ... SHARK/LIBINT Hybrid
RI-J (if used) integral strategy            ... SPLIT-RIJ (Revised 2003 algorithm where possible)
Printlevel                                  ...      1
Contraction scheme used                     ... SEGMENTED contraction
Coulomb Range Separation                    ... NOT USED
Exchange Range Separation                   ... NOT USED
Finite Nucleus Model                        ... NOT USED
Auxiliary Coulomb fitting basis             ... AVAILABLE
   # of basis functions in Aux-J            ...   1009
   # of shells in Aux-J                     ...    335
   Maximum angular momentum in Aux-J        ...      4
Auxiliary J/K fitting basis                 ... NOT available
Auxiliary Correlation fitting basis         ... NOT available
Auxiliary 'external' fitting basis          ... NOT available
Integral threshold                          ...     2.500000e-11
Primitive cut-off                           ...     2.500000e-12
Primitive pair pre-selection threshold      ...     2.500000e-12

Calculating pre-screening integrals         ... done (  0.1 sec) Dimension = 151
Organizing shell pair data                  ... done (  0.3 sec)
Shell pair information
Total number of shell pairs                 ...     11476
Shell pairs after pre-screening             ...      9035
Total number of primitive shell pairs       ...     41024
Primitive shell pairs kept                  ...     20797
          la=0 lb=0:   3624 shell pairs
          la=1 lb=0:   2979 shell pairs
          la=1 lb=1:    573 shell pairs
          la=2 lb=0:   1208 shell pairs
          la=2 lb=1:    529 shell pairs
          la=2 lb=2:    122 shell pairs

Calculating one electron integrals          ... done (  0.1 sec)
Calculating RI/J V-Matrix + Cholesky decomp.... done (  0.9 sec)
Calculating Nuclear repulsion               ... done (  0.0 sec) ENN=   1237.528433570687 Eh

SHARK setup successfully completed in   2.0 seconds

Maximum memory used throughout the entire GTOINT-calculation: 18.7 MB


           ************************************************************
           *        Program running with 4 parallel MPI-processes     *
           *              working on a common directory               *
           ************************************************************
-------------------------------------------------------------------------------
                                 ORCA SCF
-------------------------------------------------------------------------------

------------
SCF SETTINGS
------------
Hamiltonian:
 Density Functional     Method          .... DFT(GTOs)
 Exchange Functional    Exchange        .... PBE
   PBE kappa parameter   XKappa         ....  1.024500
   PBE mue parameter    XMuePBE         ....  0.123457
 Correlation Functional Correlation     .... PBE
   PBE beta parameter  CBetaPBE         ....  0.030000
 LDA part of GGA corr.  LDAOpt          .... PW91-LDA
 Gradients option       PostSCFGGA      .... off
 Hybrid DFT is turned on
   Fraction HF Exchange ScalHFX         ....  0.420000
   Scaling of DF-GGA-X  ScalDFX         ....  0.580000
   Scaling of DF-GGA-C  ScalDFC         ....  1.000000
   Scaling of DF-LDA-C  ScalLDAC        ....  1.000000
   Perturbative correction              ....  0.000000
   Density functional embedding theory  .... OFF
 RI-approximation to the Coulomb term is turned on
   Number of AuxJ basis functions       .... 1009
   RIJ-ON(X) (HFX calculated with O(N)) .... on
   Number of AuxJ basis functions       .... 1009
   RIJ-COSX (HFX calculated with COS-X)).... on


General Settings:
 Integral files         IntName         .... pbeh-3c
 Hartree-Fock type      HFTyp           .... RHF
 Total Charge           Charge          ....    0
 Multiplicity           Mult            ....    1
 Number of Electrons    NEL             ....  124
 Basis Dimension        Dim             ....  287
 Nuclear Repulsion      ENuc            ....   1237.5284335707 Eh

Convergence Acceleration:
 DIIS                   CNVDIIS         .... on
   Start iteration      DIISMaxIt       ....    12
   Startup error        DIISStart       ....  0.200000
   # of expansion vecs  DIISMaxEq       ....     5
   Bias factor          DIISBfac        ....   1.050
   Max. coefficient     DIISMaxC        ....  10.000
 Trust-Rad. Augm. Hess. CNVTRAH         .... auto
   Auto Start mean grad. ratio tolernc. ....  1.125000
   Auto Start start iteration           ....    20
   Auto Start num. interpolation iter.  ....    10
   Max. Number of Micro iterations      ....    16
   Max. Number of Macro iterations      .... Maxiter - #DIIS iter
   Number of Davidson start vectors     ....     2
   Converg. threshold I  (grad. norm)   ....   1.000e-05
   Converg. threshold II (energy diff.) ....   1.000e-08
   Grad. Scal. Fac. for Micro threshold ....   0.100
   Minimum threshold for Micro iter.    ....   0.010
   NR start threshold (gradient norm)   ....   0.001
   Initial trust radius                 ....   0.400
   Minimum AH scaling param. (alpha)    ....   1.000
   Maximum AH scaling param. (alpha)    .... 1000.000
   Orbital update algorithm             .... Taylor
   White noise on init. David. guess    .... on
   Maximum white noise                  ....   0.010
   Quad. conv. algorithm                .... NR
   COSX micro iterations for RIJONX calc.... off
 SOSCF                  CNVSOSCF        .... on
   Start iteration      SOSCFMaxIt      ....   150
   Startup grad/error   SOSCFStart      ....  0.003300
 Level Shifting         CNVShift        .... on
   Level shift para.    LevelShift      ....    0.2500
   Turn off err/grad.   ShiftErr        ....    0.0010
 Zerner damping         CNVZerner       .... off
 Static damping         CNVDamp         .... on
   Fraction old density DampFac         ....    0.7000
   Max. Damping (<1)    DampMax         ....    0.9800
   Min. Damping (>=0)   DampMin         ....    0.0000
   Turn off err/grad.   DampErr         ....    0.1000
 Fernandez-Rico         CNVRico         .... off

SCF Procedure:
 Maximum # iterations   MaxIter         ....   125
 SCF integral mode      SCFMode         .... Direct
   Integral package                     .... SHARK and LIBINT hybrid scheme
 Reset frequency        DirectResetFreq ....    20
 Integral Threshold     Thresh          ....  2.500e-11 Eh
 Primitive CutOff       TCut            ....  2.500e-12 Eh

Convergence Tolerance:
 Convergence Check Mode ConvCheckMode   .... Total+1el-Energy
 Convergence forced     ConvForced      .... 0
 Energy Change          TolE            ....  1.000e-08 Eh
 1-El. energy change                    ....  1.000e-05 Eh
 Orbital Gradient       TolG            ....  1.000e-05
 Orbital Rotation angle TolX            ....  1.000e-05
 DIIS Error             TolErr          ....  5.000e-07


Diagonalization of the overlap matrix:
Smallest eigenvalue                        ... 3.945e-04
Time for diagonalization                   ...    0.056 sec
Threshold for overlap eigenvalues          ... 1.000e-08
Number of eigenvalues below threshold      ... 0
Time for construction of square roots      ...    0.187 sec
Total time needed                          ...    0.315 sec

--------------------------------
INITIAL GUESS: MINIMAL BASIS EHT
--------------------------------
The minimal basis has 101 functions
EHT matrix was diagonalized
Basis set overlap was calculated now projecting the orbitals
Using GuessMode=FMatrix for the initial guess
C*T matrix was formed
Effective Fockian was calculated
Effective Fockian was diagonalized
Initial density was built
                      ------------------
                      INITIAL GUESS DONE
                      ------------------
-------------------
DFT GRID GENERATION
-------------------

General Integration Accuracy     IntAcc      ... 4.959
Radial Grid Type                 RadialGrid  ... OptM3 with GC (2021)
Angular Grid (max. ang.)         AngularGrid ... 6 (Lebedev-590)
Angular grid pruning method      GridPruning ... 4 (adaptive)
Weight generation scheme         WeightScheme... Becke
Basis function cutoff            BFCut       ... 1.0000e-11
Integration weight cutoff        WCut        ... 1.0000e-14
Angular grids for H and He will be reduced by one unit
Partially contracted basis set               ... off
Rotationally invariant grid construction     ... off

Total number of grid points                  ...   377285
Total number of batches                      ...     5912
Average number of points per batch           ...       63
Average number of grid points per atom       ...    11433
Time for grid setup =    9.011 sec

--------------------
COSX GRID GENERATION
--------------------

GRIDX 1
-------
General Integration Accuracy     IntAcc      ... 4.020
Radial Grid Type                 RadialGrid  ... OptM3 with GC (2021)
Angular Grid (max. ang.)         AngularGrid ... 2 (Lebedev-110)
Angular grid pruning method      GridPruning ... 4 (adaptive)
Weight generation scheme         WeightScheme... Becke
Basis function cutoff            BFCut       ... 1.0000e-11
Integration weight cutoff        WCut        ... 1.0000e-14
Angular grids for H and He will be reduced by one unit
Partially contracted basis set               ... on
Rotationally invariant grid construction     ... off

Total number of grid points                  ...    41658
Total number of batches                      ...      666
Average number of points per batch           ...       62
Average number of grid points per atom       ...     1262
UseSFitting                                  ... on

GRIDX 2
-------
General Integration Accuracy     IntAcc      ... 4.338
Radial Grid Type                 RadialGrid  ... OptM3 with GC (2021)
Angular Grid (max. ang.)         AngularGrid ... 3 (Lebedev-194)
Angular grid pruning method      GridPruning ... 4 (adaptive)
Weight generation scheme         WeightScheme... Becke
Basis function cutoff            BFCut       ... 1.0000e-11
Integration weight cutoff        WCut        ... 1.0000e-14
Angular grids for H and He will be reduced by one unit
Partially contracted basis set               ... on
Rotationally invariant grid construction     ... off

Total number of grid points                  ...    90936
Total number of batches                      ...     1438
Average number of points per batch           ...       63
Average number of grid points per atom       ...     2756
UseSFitting                                  ... on

GRIDX 3
-------
General Integration Accuracy     IntAcc      ... 4.871
Radial Grid Type                 RadialGrid  ... OptM3 with GC (2021)
Angular Grid (max. ang.)         AngularGrid ... 4 (Lebedev-302)
Angular grid pruning method      GridPruning ... 4 (adaptive)
Weight generation scheme         WeightScheme... Becke
Basis function cutoff            BFCut       ... 1.0000e-11
Integration weight cutoff        WCut        ... 1.0000e-14
Angular grids for H and He will be reduced by one unit
Partially contracted basis set               ... on
Rotationally invariant grid construction     ... off

Total number of grid points                  ...   171941
Total number of batches                      ...     2702
Average number of points per batch           ...       63
Average number of grid points per atom       ...     5210
UseSFitting                                  ... on

Time for X-Grid setup             =    6.623 sec

--------------
SCF ITERATIONS
--------------
ITER       Energy         Delta-E        Max-DP      RMS-DP      [F,P]     Damp
               ***  Starting incremental Fock matrix formation  ***
  0   -761.2797307488   0.000000000000 0.20190354  0.00481191  0.5479389 0.7000
  1   -761.9876949632  -0.707964214434 0.11735875  0.00310124  0.2924638 0.7000
  2   -762.3901952885  -0.402500325242 0.07836999  0.00206986  0.2064768 0.7000
                               ***Turning on DIIS***
  3   -762.6747799931  -0.284584704636 0.05542595  0.00147239  0.1451412 0.7000
  4   -762.8789888432  -0.204208850057 0.03834352  0.00109651  0.1018336 0.7000
  5   -763.0235536022  -0.144564759033 0.08882141  0.00266871  0.0715013 0.0000
                      *** Initiating the SOSCF procedure ***
                           *** Shutting down DIIS ***
                      *** Re-Reading the Fockian *** 
                      *** Removing any level shift *** 
ITER      Energy       Delta-E        Grad      Rot      Max-DP    RMS-DP
  6   -763.36747385  -0.3439202520  0.001821  0.001821  0.003743  0.000116
               *** Restarting incremental Fock matrix formation ***
  7   -763.36766407  -0.0001902119  0.000760  0.002208  0.004572  0.000084
  8   -763.36769799  -0.0000339250  0.001066  0.002315  0.001636  0.000047
  9   -763.36771724  -0.0000192494  0.000329  0.000597  0.000583  0.000019
 10   -763.36771972  -0.0000024823  0.000093  0.000108  0.000319  0.000007
 11   -763.36772042  -0.0000006956  0.000046  0.000125  0.000135  0.000004
 12   -763.36772053  -0.0000001143  0.000010  0.000019  0.000037  0.000001
 13   -763.36772054  -0.0000000071  0.000009  0.000016  0.000020  0.000001
                  ***Gradient check signals convergence***
              ***Rediagonalizing the Fockian in SOSCF/NRSCF***

               *****************************************************
               *                     SUCCESS                       *
               *           SCF CONVERGED AFTER  14 CYCLES          *
               *****************************************************

Old exchange energy                            =    -43.177978956 Eh
New exchange energy                            =    -43.177979346 Eh
Exchange energy change after final integration =     -0.000000390 Eh
Total energy after final integration           =   -763.367720927 Eh
Final COS-X integration done in                =    23.051 sec

----------------
TOTAL SCF ENERGY
----------------

Total Energy       :         -763.36772093 Eh          -20772.29173 eV

Components:
Nuclear Repulsion  :         1237.52843357 Eh           33674.86067 eV
Electronic Energy  :        -2000.89615450 Eh          -54447.15240 eV
One Electron Energy:        -3496.01117058 Eh          -95131.30033 eV
Two Electron Energy:         1495.11501608 Eh           40684.14793 eV
Max COSX asymmetry :            0.00000216 Eh               0.00006 eV

Virial components:
Potential Energy   :        -1520.76926655 Eh          -41382.23558 eV
Kinetic Energy     :          757.40154563 Eh           20609.94385 eV
Virial Ratio       :            2.00787716


DFT components:
N(Alpha)           :       62.000018716545 electrons
N(Beta)            :       62.000018716545 electrons
N(Total)           :      124.000037433089 electrons
E(X)               :      -57.397095819996 Eh       
E(C)               :       -5.452053377488 Eh       
E(XC)              :      -62.849149197484 Eh       
DFET-embed. en.    :        0.000000000000 Eh       

---------------
SCF CONVERGENCE
---------------

  Last Energy change         ...    2.5115e-09  Tolerance :   1.0000e-08
  Last MAX-Density change    ...    1.9984e-15  Tolerance :   1.0000e-07
  Last RMS-Density change    ...    3.3891e-17  Tolerance :   5.0000e-09
  Last Orbital Gradient      ...    2.1378e-06  Tolerance :   1.0000e-05
  Last Orbital Rotation      ...    5.1024e-06  Tolerance :   1.0000e-05

             **** THE GBW FILE WAS UPDATED (pbeh-3c.gbw) ****
             **** DENSITY pbeh-3c.scfp WAS UPDATED ****
             **** ENERGY FILE WAS UPDATED (pbeh-3c.en.tmp) ****
             **** THE GBW FILE WAS UPDATED (pbeh-3c.gbw) ****
             **** DENSITY pbeh-3c.scfp WAS UPDATED ****
----------------
ORBITAL ENERGIES
----------------

  NO   OCC          E(Eh)            E(eV) 
   0   2.0000     -19.508644      -530.8572 
   1   2.0000     -19.445589      -529.1414 
   2   2.0000     -14.684823      -399.5943 
   3   2.0000     -14.653710      -398.7477 
   4   2.0000     -10.540968      -286.8343 
   5   2.0000     -10.493483      -285.5422 
   6   2.0000     -10.484171      -285.2888 
   7   2.0000     -10.479122      -285.1514 
   8   2.0000     -10.473624      -285.0018 
   9   2.0000     -10.468925      -284.8739 
  10   2.0000     -10.451532      -284.4006 
  11   2.0000     -10.448346      -284.3140 
  12   2.0000     -10.443766      -284.1893 
  13   2.0000     -10.442822      -284.1636 
  14   2.0000     -10.435739      -283.9709 
  15   2.0000     -10.434449      -283.9358 
  16   2.0000     -10.427897      -283.7575 
  17   2.0000      -1.156804       -31.4782 
  18   2.0000      -1.131057       -30.7776 
  19   2.0000      -1.086554       -29.5666 
  20   2.0000      -1.017088       -27.6764 
  21   2.0000      -0.932734       -25.3810 
  22   2.0000      -0.897934       -24.4340 
  23   2.0000      -0.844165       -22.9709 
  24   2.0000      -0.825737       -22.4695 
  25   2.0000      -0.816862       -22.2279 
  26   2.0000      -0.801842       -21.8192 
  27   2.0000      -0.767412       -20.8823 
  28   2.0000      -0.731855       -19.9148 
  29   2.0000      -0.686106       -18.6699 
  30   2.0000      -0.665559       -18.1108 
  31   2.0000      -0.645494       -17.5648 
  32   2.0000      -0.632319       -17.2063 
  33   2.0000      -0.609131       -16.5753 
  34   2.0000      -0.568470       -15.4689 
  35   2.0000      -0.559976       -15.2377 
  36   2.0000      -0.552938       -15.0462 
  37   2.0000      -0.539406       -14.6780 
  38   2.0000      -0.519978       -14.1493 
  39   2.0000      -0.517924       -14.0934 
  40   2.0000      -0.513600       -13.9758 
  41   2.0000      -0.497322       -13.5328 
  42   2.0000      -0.489138       -13.3101 
  43   2.0000      -0.484644       -13.1878 
  44   2.0000      -0.478194       -13.0123 
  45   2.0000      -0.463500       -12.6125 
  46   2.0000      -0.452481       -12.3126 
  47   2.0000      -0.449628       -12.2350 
  48   2.0000      -0.446179       -12.1412 
  49   2.0000      -0.442699       -12.0465 
  50   2.0000      -0.429232       -11.6800 
  51   2.0000      -0.413063       -11.2400 
  52   2.0000      -0.406103       -11.0506 
  53   2.0000      -0.404515       -11.0074 
  54   2.0000      -0.398216       -10.8360 
  55   2.0000      -0.370575       -10.0839 
  56   2.0000      -0.342939        -9.3318 
  57   2.0000      -0.319916        -8.7053 
  58   2.0000      -0.298633        -8.1262 
  59   2.0000      -0.293338        -7.9821 
  60   2.0000      -0.241571        -6.5735 
  61   2.0000      -0.233127        -6.3437 
  62   0.0000       0.009979         0.2715 
  63   0.0000       0.058266         1.5855 
  64   0.0000       0.073805         2.0083 
  65   0.0000       0.086179         2.3450 
  66   0.0000       0.124473         3.3871 
  67   0.0000       0.133369         3.6291 
  68   0.0000       0.151541         4.1236 
  69   0.0000       0.159244         4.3332 
  70   0.0000       0.166936         4.5426 
  71   0.0000       0.174241         4.7413 
  72   0.0000       0.179633         4.8881 
  73   0.0000       0.189509         5.1568 
  74   0.0000       0.191990         5.2243 
  75   0.0000       0.202136         5.5004 
  76   0.0000       0.206358         5.6153 
  77   0.0000       0.213371         5.8061 
  78   0.0000       0.221970         6.0401 
  79   0.0000       0.228079         6.2063 
  80   0.0000       0.233439         6.3522 
  81   0.0000       0.240583         6.5466 
  82   0.0000       0.245940         6.6924 
  83   0.0000       0.249134         6.7793 
  84   0.0000       0.251641         6.8475 
  85   0.0000       0.262356         7.1391 
  86   0.0000       0.263844         7.1795 
  87   0.0000       0.280803         7.6410 
  88   0.0000       0.292683         7.9643 
  89   0.0000       0.303613         8.2617 
  90   0.0000       0.327757         8.9187 
  91   0.0000       0.336271         9.1504 
  92   0.0000       0.344431         9.3724 
  93   0.0000       0.358231         9.7480 
  94   0.0000       0.386062        10.5053 
  95   0.0000       0.415807        11.3147 
  96   0.0000       0.423220        11.5164 
  97   0.0000       0.444177        12.0867 
  98   0.0000       0.477583        12.9957 
  99   0.0000       0.489572        13.3219 
 100   0.0000       0.493404        13.4262 
 101   0.0000       0.503397        13.6981 
 102   0.0000       0.518806        14.1174 
 103   0.0000       0.521742        14.1973 
 104   0.0000       0.529233        14.4012 
 105   0.0000       0.537976        14.6391 
 106   0.0000       0.544917        14.8280 
 107   0.0000       0.563724        15.3397 
 108   0.0000       0.568838        15.4789 
 109   0.0000       0.583751        15.8847 
 110   0.0000       0.596603        16.2344 
 111   0.0000       0.601085        16.3563 
 112   0.0000       0.603243        16.4151 
 113   0.0000       0.611161        16.6305 
 114   0.0000       0.613654        16.6984 
 115   0.0000       0.620802        16.8929 
 116   0.0000       0.627018        17.0620 
 117   0.0000       0.632634        17.2149 
 118   0.0000       0.638923        17.3860 
 119   0.0000       0.658046        17.9063 
 120   0.0000       0.666530        18.1372 
 121   0.0000       0.678402        18.4603 
 122   0.0000       0.684948        18.6384 
 123   0.0000       0.702231        19.1087 
 124   0.0000       0.719994        19.5920 
 125   0.0000       0.725495        19.7417 
 126   0.0000       0.737070        20.0567 
 127   0.0000       0.741150        20.1677 
 128   0.0000       0.753094        20.4927 
 129   0.0000       0.784985        21.3605 
 130   0.0000       0.789308        21.4782 
 131   0.0000       0.823837        22.4177 
 132   0.0000       0.830733        22.6054 
 133   0.0000       0.843900        22.9637 
 134   0.0000       0.852217        23.1900 
 135   0.0000       0.885142        24.0859 
 136   0.0000       0.895882        24.3782 
 137   0.0000       0.931082        25.3360 
 138   0.0000       0.936940        25.4954 
 139   0.0000       0.954844        25.9826 
 140   0.0000       0.961291        26.1581 
 141   0.0000       0.974971        26.5303 
 142   0.0000       0.987922        26.8827 
 143   0.0000       0.988970        26.9113 
 144   0.0000       0.994394        27.0588 
 145   0.0000       1.002232        27.2721 
 146   0.0000       1.012341        27.5472 
 147   0.0000       1.014835        27.6151 
 148   0.0000       1.024341        27.8737 
 149   0.0000       1.029327        28.0094 
 150   0.0000       1.040931        28.3252 
 151   0.0000       1.051472        28.6120 
 152   0.0000       1.053754        28.6741 
 153   0.0000       1.063109        28.9287 
 154   0.0000       1.071118        29.1466 
 155   0.0000       1.083571        29.4855 
 156   0.0000       1.083779        29.4911 
 157   0.0000       1.093824        29.7645 
 158   0.0000       1.111096        30.2345 
 159   0.0000       1.134468        30.8704 
 160   0.0000       1.139709        31.0131 
 161   0.0000       1.152331        31.3565 
 162   0.0000       1.169222        31.8161 
 163   0.0000       1.176819        32.0229 
 164   0.0000       1.195105        32.5205 
 165   0.0000       1.206079        32.8191 
 166   0.0000       1.240354        33.7518 
 167   0.0000       1.255311        34.1588 
 168   0.0000       1.276215        34.7276 
 169   0.0000       1.287869        35.0447 
 170   0.0000       1.303211        35.4622 
 171   0.0000       1.318439        35.8766 
 172   0.0000       1.330567        36.2066 
 173   0.0000       1.359961        37.0064 
 174   0.0000       1.383974        37.6599 
 175   0.0000       1.406385        38.2697 
 176   0.0000       1.416386        38.5418 
 177   0.0000       1.435011        39.0486 
 178   0.0000       1.444589        39.3093 
 179   0.0000       1.450846        39.4795 
 180   0.0000       1.464748        39.8578 
 181   0.0000       1.480730        40.2927 
 182   0.0000       1.493322        40.6353 
 183   0.0000       1.503267        40.9060 
 184   0.0000       1.518911        41.3317 
 185   0.0000       1.543230        41.9934 
 186   0.0000       1.545188        42.0467 
 187   0.0000       1.556990        42.3678 
 188   0.0000       1.561898        42.5014 
 189   0.0000       1.589848        43.2620 
 190   0.0000       1.609145        43.7871 
 191   0.0000       1.631997        44.4089 
 192   0.0000       1.645133        44.7664 
 193   0.0000       1.675039        45.5801 
 194   0.0000       1.729627        47.0655 
 195   0.0000       1.773334        48.2549 
 196   0.0000       1.798435        48.9379 
 197   0.0000       1.821207        49.5576 
 198   0.0000       1.844470        50.1906 
 199   0.0000       1.848292        50.2946 
 200   0.0000       1.862585        50.6835 
 201   0.0000       1.888877        51.3990 
 202   0.0000       1.892406        51.4950 
 203   0.0000       1.902565        51.7714 
 204   0.0000       1.904463        51.8231 
 205   0.0000       1.940730        52.8099 
 206   0.0000       1.948155        53.0120 
 207   0.0000       1.978107        53.8270 
 208   0.0000       1.999145        54.3995 
 209   0.0000       2.022343        55.0307 
 210   0.0000       2.036982        55.4291 
 211   0.0000       2.039719        55.5036 
 212   0.0000       2.051917        55.8355 
 213   0.0000       2.068717        56.2927 
 214   0.0000       2.091307        56.9074 
 215   0.0000       2.094183        56.9856 
 216   0.0000       2.103493        57.2390 
 217   0.0000       2.119069        57.6628 
 218   0.0000       2.148358        58.4598 
 219   0.0000       2.152003        58.5590 
 220   0.0000       2.172891        59.1274 
 221   0.0000       2.184422        59.4412 
 222   0.0000       2.194031        59.7026 
 223   0.0000       2.200197        59.8704 
 224   0.0000       2.219434        60.3939 
 225   0.0000       2.239035        60.9272 
 226   0.0000       2.260086        61.5001 
 227   0.0000       2.274046        61.8799 
 228   0.0000       2.282703        62.1155 
 229   0.0000       2.303307        62.6762 
 230   0.0000       2.314950        62.9930 
 231   0.0000       2.325394        63.2772 
 232   0.0000       2.336269        63.5731 
 233   0.0000       2.351527        63.9883 
 234   0.0000       2.372570        64.5609 
 235   0.0000       2.388530        64.9952 
 236   0.0000       2.397322        65.2344 
 237   0.0000       2.407578        65.5135 
 238   0.0000       2.437458        66.3266 
 239   0.0000       2.453859        66.7729 
 240   0.0000       2.479043        67.4582 
 241   0.0000       2.485817        67.6425 
 242   0.0000       2.542927        69.1966 
 243   0.0000       2.550997        69.4162 
 244   0.0000       2.580935        70.2308 
 245   0.0000       2.592647        70.5495 
 246   0.0000       2.606108        70.9158 
 247   0.0000       2.621504        71.3348 
 248   0.0000       2.659874        72.3788 
 249   0.0000       2.678171        72.8767 
 250   0.0000       2.690205        73.2042 
 251   0.0000       2.710905        73.7675 
 252   0.0000       2.727171        74.2101 
 253   0.0000       2.739181        74.5369 
 254   0.0000       2.757511        75.0357 
 255   0.0000       2.778119        75.5965 
 256   0.0000       2.795750        76.0762 
 257   0.0000       2.814159        76.5771 
 258   0.0000       2.847390        77.4814 
 259   0.0000       2.879995        78.3687 
 260   0.0000       2.984493        81.2122 
 261   0.0000       2.991183        81.3942 
 262   0.0000       3.015093        82.0449 
 263   0.0000       3.059495        83.2531 
 264   0.0000       3.078994        83.7837 
 265   0.0000       3.196205        86.9732 
 266   0.0000       3.211845        87.3987 
 267   0.0000       3.226576        87.7996 
 268   0.0000       3.359336        91.4122 
 269   0.0000       3.530966        96.0825 
 270   0.0000      13.290506       361.6530 
 271   0.0000      13.634800       371.0218 
 272   0.0000      13.678112       372.2003 
 273   0.0000      13.774824       374.8320 
 274   0.0000      13.804125       375.6293 
 275   0.0000      13.843694       376.7061 
 276   0.0000      13.859408       377.1337 
 277   0.0000      14.029580       381.7643 
 278   0.0000      14.087400       383.3377 
 279   0.0000      14.135360       384.6427 
 280   0.0000      14.252288       387.8245 
 281   0.0000      14.340717       390.2307 
 282   0.0000      14.551523       395.9671 
 283   0.0000      19.294360       525.0262 
 284   0.0000      19.418983       528.4174 
 285   0.0000      25.771621       701.2815 
 286   0.0000      25.803841       702.1582 

                    ********************************
                    * MULLIKEN POPULATION ANALYSIS *
                    ********************************

-----------------------
MULLIKEN ATOMIC CHARGES
-----------------------
   0 N :   -0.694666
   1 C :   -0.062097
   2 C :    0.017068
   3 C :    0.073409
   4 C :   -0.471180
   5 C :    0.397922
   6 C :   -0.317776
   7 C :   -0.255310
   8 C :    0.340977
   9 H :    0.357565
  10 H :    0.235862
  11 H :    0.222558
  12 H :    0.233945
  13 H :    0.211526
  14 O :   -0.469095
  15 C :   -0.429712
  16 H :    0.191366
  17 H :    0.253765
  18 H :    0.233910
  19 C :   -0.525680
  20 C :   -0.278694
  21 N :   -0.607532
  22 C :    0.517442
  23 C :   -0.779220
  24 H :    0.227374
  25 H :    0.225225
  26 H :    0.231347
  27 H :    0.235996
  28 H :    0.353569
  29 O :   -0.435308
  30 H :    0.227707
  31 H :    0.267843
  32 H :    0.269891
Sum of atomic charges:   -0.0000000

--------------------------------
MULLIKEN REDUCED ORBITAL CHARGES
--------------------------------
  0 N s       :     3.597205  s :     3.597205
      pz      :     1.530943  p :     4.055763
      px      :     1.222854
      py      :     1.301966
      dz2     :     0.004431  d :     0.041698
      dxz     :     0.008712
      dyz     :     0.007049
      dx2y2   :     0.012402
      dxy     :     0.009104
  1 C s       :     3.153881  s :     3.153881
      pz      :     0.994701  p :     2.851500
      px      :     0.882674
      py      :     0.974125
      dz2     :     0.010667  d :     0.056716
      dxz     :     0.009148
      dyz     :     0.007148
      dx2y2   :     0.011566
      dxy     :     0.018187
  2 C s       :     3.193505  s :     3.193505
      pz      :     1.003812  p :     2.744157
      px      :     0.832016
      py      :     0.908329
      dz2     :     0.005533  d :     0.045270
      dxz     :     0.008233
      dyz     :     0.007741
      dx2y2   :     0.013996
      dxy     :     0.009767
  3 C s       :     3.211274  s :     3.211274
      pz      :     0.978746  p :     2.668287
      px      :     0.815655
      py      :     0.873886
      dz2     :     0.005944  d :     0.047030
      dxz     :     0.008337
      dyz     :     0.007868
      dx2y2   :     0.012816
      dxy     :     0.012064
  4 C s       :     3.323500  s :     3.323500
      pz      :     1.081010  p :     3.109723
      px      :     0.964577
      py      :     1.064136
      dz2     :     0.003581  d :     0.037958
      dxz     :     0.007539
      dyz     :     0.006362
      dx2y2   :     0.010894
      dxy     :     0.009582
  5 C s       :     3.052011  s :     3.052011
      pz      :     0.923465  p :     2.474232
      px      :     0.783015
      py      :     0.767751
      dz2     :     0.008491  d :     0.075835
      dxz     :     0.014099
      dyz     :     0.011182
      dx2y2   :     0.019000
      dxy     :     0.023064
  6 C s       :     3.269440  s :     3.269440
      pz      :     1.020077  p :     3.010701
      px      :     1.046305
      py      :     0.944319
      dz2     :     0.004839  d :     0.037635
      dxz     :     0.005253
      dyz     :     0.007023
      dx2y2   :     0.012420
      dxy     :     0.008099
  7 C s       :     3.254424  s :     3.254424
      pz      :     1.021633  p :     2.960694
      px      :     0.921635
      py      :     1.017426
      dz2     :     0.003395  d :     0.040192
      dxz     :     0.008202
      dyz     :     0.006990
      dx2y2   :     0.012187
      dxy     :     0.009419
  8 C s       :     3.078397  s :     3.078397
      pz      :     0.973464  p :     2.517542
      px      :     0.701282
      py      :     0.842795
      dz2     :     0.007683  d :     0.063084
      dxz     :     0.012551
      dyz     :     0.008332
      dx2y2   :     0.014809
      dxy     :     0.019709
  9 H s       :     0.642435  s :     0.642435
 10 H s       :     0.764138  s :     0.764138
 11 H s       :     0.777442  s :     0.777442
 12 H s       :     0.766055  s :     0.766055
 13 H s       :     0.788474  s :     0.788474
 14 O s       :     3.790542  s :     3.790542
      pz      :     1.745189  p :     4.645718
      px      :     1.599236
      py      :     1.301293
      dz2     :     0.004517  d :     0.032835
      dxz     :     0.004791
      dyz     :     0.005570
      dx2y2   :     0.006676
      dxy     :     0.011281
 15 C s       :     3.344727  s :     3.344727
      pz      :     1.048483  p :     3.024299
      px      :     1.162439
      py      :     0.813377
      dz2     :     0.014920  d :     0.060687
      dxz     :     0.007666
      dyz     :     0.011730
      dx2y2   :     0.009577
      dxy     :     0.016795
 16 H s       :     0.808634  s :     0.808634
 17 H s       :     0.746235  s :     0.746235
 18 H s       :     0.766090  s :     0.766090
 19 C s       :     3.386387  s :     3.386387
      pz      :     1.033540  p :     3.095516
      px      :     1.071350
      py      :     0.990625
      dz2     :     0.007066  d :     0.043777
      dxz     :     0.009234
      dyz     :     0.010517
      dx2y2   :     0.004534
      dxy     :     0.012426
 20 C s       :     3.290201  s :     3.290201
      pz      :     1.090321  p :     2.929867
      px      :     0.937262
      py      :     0.902284
      dz2     :     0.008323  d :     0.058626
      dxz     :     0.010396
      dyz     :     0.012482
      dx2y2   :     0.010946
      dxy     :     0.016479
 21 N s       :     3.534582  s :     3.534582
      pz      :     1.243936  p :     4.039277
      px      :     1.392211
      py      :     1.403130
      dz2     :     0.005329  d :     0.033673
      dxz     :     0.008210
      dyz     :     0.009718
      dx2y2   :     0.005063
      dxy     :     0.005354
 22 C s       :     2.972552  s :     2.972552
      pz      :     0.812795  p :     2.388590
      px      :     0.767254
      py      :     0.808542
      dz2     :     0.020053  d :     0.121415
      dxz     :     0.030837
      dyz     :     0.026129
      dx2y2   :     0.027013
      dxy     :     0.017383
 23 C s       :     3.417432  s :     3.417432
      pz      :     1.064736  p :     3.327997
      px      :     1.153108
      py      :     1.110153
      dz2     :     0.005527  d :     0.033791
      dxz     :     0.008197
      dyz     :     0.007386
      dx2y2   :     0.010688
      dxy     :     0.001993
 24 H s       :     0.772626  s :     0.772626
 25 H s       :     0.774775  s :     0.774775
 26 H s       :     0.768653  s :     0.768653
 27 H s       :     0.764004  s :     0.764004
 28 H s       :     0.646431  s :     0.646431
 29 O s       :     3.765873  s :     3.765873
      pz      :     1.768343  p :     4.640779
      px      :     1.423847
      py      :     1.448588
      dz2     :     0.003032  d :     0.028656
      dxz     :     0.003694
      dyz     :     0.003376
      dx2y2   :     0.010264
      dxy     :     0.008290
 30 H s       :     0.772293  s :     0.772293
 31 H s       :     0.732157  s :     0.732157
 32 H s       :     0.730109  s :     0.730109


                     *******************************
                     * LOEWDIN POPULATION ANALYSIS *
                     *******************************

----------------------
LOEWDIN ATOMIC CHARGES
----------------------
   0 N :   -0.156354
   1 C :   -0.090886
   2 C :   -0.114871
   3 C :   -0.057004
   4 C :   -0.188835
   5 C :    0.063248
   6 C :   -0.153878
   7 C :   -0.150692
   8 C :   -0.001020
   9 H :    0.261448
  10 H :    0.133423
  11 H :    0.142034
  12 H :    0.146121
  13 H :    0.136442
  14 O :   -0.190712
  15 C :   -0.186804
  16 H :    0.106794
  17 H :    0.134249
  18 H :    0.127412
  19 C :   -0.235156
  20 C :   -0.143691
  21 N :   -0.244203
  22 C :    0.114275
  23 C :   -0.396554
  24 H :    0.132693
  25 H :    0.135169
  26 H :    0.123181
  27 H :    0.133395
  28 H :    0.253972
  29 O :   -0.285957
  30 H :    0.139925
  31 H :    0.156560
  32 H :    0.156276

-------------------------------
LOEWDIN REDUCED ORBITAL CHARGES
-------------------------------
  0 N s       :     3.075406  s :     3.075406
      pz      :     1.489454  p :     3.986093
      px      :     1.234902
      py      :     1.261737
      dz2     :     0.008287  d :     0.094855
      dxz     :     0.020459
      dyz     :     0.012095
      dx2y2   :     0.028798
      dxy     :     0.025217
  1 C s       :     2.883324  s :     2.883324
      pz      :     1.031949  p :     3.084037
      px      :     0.998616
      py      :     1.053471
      dz2     :     0.021432  d :     0.123525
      dxz     :     0.019747
      dyz     :     0.016449
      dx2y2   :     0.026877
      dxy     :     0.039020
  2 C s       :     2.842873  s :     2.842873
      pz      :     1.063005  p :     3.163995
      px      :     1.043978
      py      :     1.057013
      dz2     :     0.010793  d :     0.108002
      dxz     :     0.018605
      dyz     :     0.017173
      dx2y2   :     0.035567
      dxy     :     0.025865
  3 C s       :     2.830274  s :     2.830274
      pz      :     1.022391  p :     3.112451
      px      :     1.041492
      py      :     1.048569
      dz2     :     0.012441  d :     0.114278
      dxz     :     0.018450
      dyz     :     0.017952
      dx2y2   :     0.033913
      dxy     :     0.031522
  4 C s       :     2.883568  s :     2.883568
      pz      :     1.077881  p :     3.219822
      px      :     1.065829
      py      :     1.076112
      dz2     :     0.006591  d :     0.085445
      dxz     :     0.016579
      dyz     :     0.011547
      dx2y2   :     0.026858
      dxy     :     0.023871
  5 C s       :     2.823387  s :     2.823387
      pz      :     0.989599  p :     2.937333
      px      :     0.997665
      py      :     0.950070
      dz2     :     0.018636  d :     0.176031
      dxz     :     0.030509
      dyz     :     0.024610
      dx2y2   :     0.047535
      dxy     :     0.054742
  6 C s       :     2.892058  s :     2.892058
      pz      :     1.038402  p :     3.176589
      px      :     1.078449
      py      :     1.059738
      dz2     :     0.009211  d :     0.085231
      dxz     :     0.010119
      dyz     :     0.016118
      dx2y2   :     0.028261
      dxy     :     0.021521
  7 C s       :     2.885468  s :     2.885468
      pz      :     1.036229  p :     3.174460
      px      :     1.063671
      py      :     1.074560
      dz2     :     0.006528  d :     0.090763
      dxz     :     0.018261
      dyz     :     0.012538
      dx2y2   :     0.029216
      dxy     :     0.024220
  8 C s       :     2.812700  s :     2.812700
      pz      :     1.038407  p :     3.041003
      px      :     1.005794
      py      :     0.996802
      dz2     :     0.016537  d :     0.147317
      dxz     :     0.026948
      dyz     :     0.019020
      dx2y2   :     0.036731
      dxy     :     0.048082
  9 H s       :     0.738552  s :     0.738552
 10 H s       :     0.866577  s :     0.866577
 11 H s       :     0.857966  s :     0.857966
 12 H s       :     0.853879  s :     0.853879
 13 H s       :     0.863558  s :     0.863558
 14 O s       :     3.430264  s :     3.430264
      pz      :     1.736618  p :     4.688172
      px      :     1.612573
      py      :     1.338981
      dz2     :     0.009017  d :     0.072277
      dxz     :     0.007951
      dyz     :     0.013795
      dx2y2   :     0.016743
      dxy     :     0.024770
 15 C s       :     2.956080  s :     2.956080
      pz      :     1.081973  p :     3.111593
      px      :     1.139643
      py      :     0.889977
      dz2     :     0.028165  d :     0.119132
      dxz     :     0.014046
      dyz     :     0.024165
      dx2y2   :     0.018783
      dxy     :     0.033973
 16 H s       :     0.893206  s :     0.893206
 17 H s       :     0.865751  s :     0.865751
 18 H s       :     0.872588  s :     0.872588
 19 C s       :     2.907138  s :     2.907138
      pz      :     1.084039  p :     3.237943
      px      :     1.089125
      py      :     1.064780
      dz2     :     0.013588  d :     0.090075
      dxz     :     0.018240
      dyz     :     0.023063
      dx2y2   :     0.009865
      dxy     :     0.025319
 20 C s       :     2.901440  s :     2.901440
      pz      :     1.105076  p :     3.120740
      px      :     1.008629
      py      :     1.007034
      dz2     :     0.015822  d :     0.121511
      dxz     :     0.019972
      dyz     :     0.026746
      dx2y2   :     0.024427
      dxy     :     0.034545
 21 N s       :     3.112418  s :     3.112418
      pz      :     1.256832  p :     4.051872
      px      :     1.412099
      py      :     1.382940
      dz2     :     0.015022  d :     0.079914
      dxz     :     0.020366
      dyz     :     0.020857
      dx2y2   :     0.011956
      dxy     :     0.011714
 22 C s       :     2.832047  s :     2.832047
      pz      :     0.963051  p :     2.780312
      px      :     0.901066
      py      :     0.916195
      dz2     :     0.043577  d :     0.273366
      dxz     :     0.074079
      dyz     :     0.059511
      dx2y2   :     0.055963
      dxy     :     0.040236
 23 C s       :     2.963808  s :     2.963808
      pz      :     1.107696  p :     3.370183
      px      :     1.136028
      py      :     1.126459
      dz2     :     0.010765  d :     0.062563
      dxz     :     0.014951
      dyz     :     0.015083
      dx2y2   :     0.018553
      dxy     :     0.003210
 24 H s       :     0.867307  s :     0.867307
 25 H s       :     0.864831  s :     0.864831
 26 H s       :     0.876819  s :     0.876819
 27 H s       :     0.866605  s :     0.866605
 28 H s       :     0.746028  s :     0.746028
 29 O s       :     3.522812  s :     3.522812
      pz      :     1.756825  p :     4.708607
      px      :     1.465697
      py      :     1.486084
      dz2     :     0.007018  d :     0.054539
      dxz     :     0.007303
      dyz     :     0.006499
      dx2y2   :     0.014025
      dxy     :     0.019693
 30 H s       :     0.860075  s :     0.860075
 31 H s       :     0.843440  s :     0.843440
 32 H s       :     0.843724  s :     0.843724


                      *****************************
                      * MAYER POPULATION ANALYSIS *
                      *****************************

  NA   - Mulliken gross atomic population
  ZA   - Total nuclear charge
  QA   - Mulliken gross atomic charge
  VA   - Mayer's total valence
  BVA  - Mayer's bonded valence
  FA   - Mayer's free valence

  ATOM       NA         ZA         QA         VA         BVA        FA
  0 N      7.6947     7.0000    -0.6947     3.1748     3.1748     0.0000
  1 C      6.0621     6.0000    -0.0621     3.7020     3.7020     0.0000
  2 C      5.9829     6.0000     0.0171     3.6929     3.6929    -0.0000
  3 C      5.9266     6.0000     0.0734     3.7909     3.7909    -0.0000
  4 C      6.4712     6.0000    -0.4712     3.7228     3.7228    -0.0000
  5 C      5.6021     6.0000     0.3979     3.7735     3.7735     0.0000
  6 C      6.3178     6.0000    -0.3178     3.8455     3.8455    -0.0000
  7 C      6.2553     6.0000    -0.2553     3.7761     3.7761     0.0000
  8 C      5.6590     6.0000     0.3410     3.5330     3.5330    -0.0000
  9 H      0.6424     1.0000     0.3576     0.8520     0.8520    -0.0000
 10 H      0.7641     1.0000     0.2359     0.9065     0.9065     0.0000
 11 H      0.7774     1.0000     0.2226     0.9306     0.9306    -0.0000
 12 H      0.7661     1.0000     0.2339     0.9125     0.9125    -0.0000
 13 H      0.7885     1.0000     0.2115     0.9140     0.9140     0.0000
 14 O      8.4691     8.0000    -0.4691     2.1004     2.1004     0.0000
 15 C      6.4297     6.0000    -0.4297     3.6721     3.6721     0.0000
 16 H      0.8086     1.0000     0.1914     0.9133     0.9133     0.0000
 17 H      0.7462     1.0000     0.2538     0.9080     0.9080     0.0000
 18 H      0.7661     1.0000     0.2339     0.9113     0.9113    -0.0000
 19 C      6.5257     6.0000    -0.5257     3.6888     3.6888     0.0000
 20 C      6.2787     6.0000    -0.2787     3.6985     3.6985     0.0000
 21 N      7.6075     7.0000    -0.6075     2.9999     2.9999    -0.0000
 22 C      5.4826     6.0000     0.5174     4.0461     4.0461     0.0000
 23 C      6.7792     6.0000    -0.7792     3.6597     3.6597     0.0000
 24 H      0.7726     1.0000     0.2274     0.9048     0.9048    -0.0000
 25 H      0.7748     1.0000     0.2252     0.9066     0.9066     0.0000
 26 H      0.7687     1.0000     0.2313     0.9001     0.9001    -0.0000
 27 H      0.7640     1.0000     0.2360     0.9063     0.9063     0.0000
 28 H      0.6464     1.0000     0.3536     0.8540     0.8540    -0.0000
 29 O      8.4353     8.0000    -0.4353     2.1758     2.1758    -0.0000
 30 H      0.7723     1.0000     0.2277     0.9074     0.9074     0.0000
 31 H      0.7322     1.0000     0.2678     0.8892     0.8892     0.0000
 32 H      0.7301     1.0000     0.2699     0.9041     0.9041     0.0000

  Mayer bond orders larger than 0.100000
B(  0-N ,  1-C ) :   1.1484 B(  0-N ,  8-C ) :   1.0022 B(  0-N ,  9-H ) :   0.8342 
B(  1-C ,  2-C ) :   1.5436 B(  1-C , 10-H ) :   0.9119 B(  2-C ,  3-C ) :   1.2514 
B(  2-C , 19-C ) :   0.9504 B(  3-C ,  4-C ) :   1.2571 B(  3-C ,  8-C ) :   1.2579 
B(  4-C ,  5-C ) :   1.4280 B(  4-C , 11-H ) :   0.9068 B(  5-C ,  6-C ) :   1.2964 
B(  5-C , 14-O ) :   1.0395 B(  6-C ,  7-C ) :   1.5297 B(  6-C , 12-H ) :   0.9085 
B(  7-C ,  8-C ) :   1.2714 B(  7-C , 13-H ) :   0.9210 B( 14-O , 15-C ) :   0.9411 
B( 15-C , 16-H ) :   0.9110 B( 15-C , 17-H ) :   0.8782 B( 15-C , 18-H ) :   0.9257 
B( 19-C , 20-C ) :   0.9522 B( 19-C , 24-H ) :   0.9192 B( 19-C , 25-H ) :   0.9220 
B( 20-C , 21-N ) :   0.9612 B( 20-C , 26-H ) :   0.9132 B( 20-C , 27-H ) :   0.9066 
B( 21-N , 22-C ) :   1.1462 B( 21-N , 28-H ) :   0.8245 B( 22-C , 23-C ) :   0.9345 
B( 22-C , 29-O ) :   1.9912 B( 23-C , 30-H ) :   0.9109 B( 23-C , 31-H ) :   0.8920 
B( 23-C , 32-H ) :   0.9166 

-------
TIMINGS
-------

Total SCF time: 0 days 0 hours 4 min 10 sec 

Total time                  ....     250.082 sec
Sum of individual times     ....     243.461 sec  ( 97.4%)

Fock matrix formation       ....     223.505 sec  ( 89.4%)
  Split-RI-J                ....      15.456 sec  (  6.9% of F)
  Chain of spheres X        ....     156.760 sec  ( 70.1% of F)
  XC integration            ....      36.627 sec  ( 16.4% of F)
    Basis function eval.    ....      10.473 sec  ( 28.6% of XC)
    Density eval.           ....       6.607 sec  ( 18.0% of XC)
    XC-Functional eval.     ....       2.816 sec  (  7.7% of XC)
    XC-Potential eval.      ....       4.035 sec  ( 11.0% of XC)
Diagonalization             ....       0.616 sec  (  0.2%)
Density matrix formation    ....       0.083 sec  (  0.0%)
Population analysis         ....       0.137 sec  (  0.1%)
Initial guess               ....       0.197 sec  (  0.1%)
Orbital Transformation      ....       0.000 sec  (  0.0%)
Orbital Orthonormalization  ....       0.000 sec  (  0.0%)
DIIS solution               ....       1.768 sec  (  0.7%)
SOSCF solution              ....       1.521 sec  (  0.6%)
Grid generation             ....      15.634 sec  (  6.3%)

Maximum memory used throughout the entire SCF-calculation: 100.2 MB


-------------------------------------------------------------------------------
                          DFT DISPERSION CORRECTION                            
                                                                               
                              DFTD3 V3.1  Rev 1                                
                          USING Becke-Johnson damping                          
-------------------------------------------------------------------------------
The PBEh-3c composite method is recognized
Using three-body term ABC
Active option DFTDOPT                   ...         4   

molecular C6(AA) [au] = 10861.118837 


            DFT-D V3
 parameters
 s6 scaling factor         :     1.0000 
 a1 scaling factor         :     0.4860 
 s8 scaling factor         :     0.0000 
 a2 scaling factor         :     4.5000 
 Damping factor alpha9(ATM):    16.0000 
 ad hoc parameters k1-k3   :    16.0000     1.3333    -4.0000 

 Edisp/kcal,au: -14.780421497821  -0.023554098435 
 E6   /kcal   : -15.004441677 
 E8   /kcal   :  -0.000000000 
 E6(ABC)      :   0.224020179 
 % E8         :   0.000000000 
 % E6(ABC)    :  -1.515654877 

-------------------------   ----------------
Dispersion correction           -0.023554098
-------------------------   ----------------

------------------   -----------------
gCP correction             0.063599662
------------------   -----------------

-------------------------   --------------------
FINAL SINGLE POINT ENERGY      -763.327675363508
-------------------------   --------------------


                            ***************************************
                            *     ORCA property calculations      *
                            ***************************************

                                    ---------------------
                                    Active property flags
                                    ---------------------
   (+) Dipole Moment


------------------------------------------------------------------------------
                       ORCA ELECTRIC PROPERTIES CALCULATION
------------------------------------------------------------------------------

Dipole Moment Calculation                       ... on
Quadrupole Moment Calculation                   ... off
Polarizability Calculation                      ... off
GBWName                                         ... pbeh-3c.gbw
Electron density                                ... pbeh-3c.scfp
The origin for moment calculation is the CENTER OF MASS  = (-0.412054,  0.133026  0.050407)

-------------
DIPOLE MOMENT
-------------
                                X             Y             Z
Electronic contribution:     -5.16439       4.83591       0.38193
Nuclear contribution   :      6.76976      -3.53247      -0.67685
                        -----------------------------------------
Total Dipole Moment    :      1.60536       1.30344      -0.29492
                        -----------------------------------------
Magnitude (a.u.)       :      2.08881
Magnitude (Debye)      :      5.30934



--------------------
Rotational spectrum 
--------------------
 
Rotational constants in cm-1:     0.018168     0.016172     0.010496 
Rotational constants in MHz :   544.651253   484.833457   314.652711 

 Dipole components along the rotational axes: 
x,y,z [a.u.] :     1.522263     1.405030    -0.267838 
x,y,z [Debye]:     3.869286     3.571303    -0.680789 

 

Timings for individual modules:

Sum of individual times         ...      253.966 sec (=   4.233 min)
GTO integral calculation        ...        2.964 sec (=   0.049 min)   1.2 %
SCF iterations                  ...      251.002 sec (=   4.183 min)  98.8 %
                             ****ORCA TERMINATED NORMALLY****
TOTAL RUN TIME: 0 days 0 hours 4 minutes 15 seconds 768 msec
