
                                 *****************
                                 * O   R   C   A *
                                 *****************

                                            #,                                       
                                            ###                                      
                                            ####                                     
                                            #####                                    
                                            ######                                   
                                           ########,                                 
                                     ,,################,,,,,                         
                               ,,#################################,,                 
                          ,,##########################################,,             
                       ,#########################################, ''#####,          
                    ,#############################################,,   '####,        
                  ,##################################################,,,,####,       
                ,###########''''           ''''###############################       
              ,#####''   ,,,,##########,,,,          '''####'''          '####       
            ,##' ,,,,###########################,,,                        '##       
           ' ,,###''''                  '''############,,,                           
         ,,##''                                '''############,,,,        ,,,,,,###''
      ,#''                                            '''#######################'''  
     '                                                          ''''####''''         
             ,#######,   #######,   ,#######,      ##                                
            ,#'     '#,  ##    ##  ,#'     '#,    #''#        ######   ,####,        
            ##       ##  ##   ,#'  ##            #'  '#       #        #'  '#        
            ##       ##  #######   ##           ,######,      #####,   #    #        
            '#,     ,#'  ##    ##  '#,     ,#' ,#      #,         ##   #,  ,#        
             '#######'   ##     ##  '#######'  #'      '#     #####' # '####'        



                  #######################################################
                  #                        -***-                        #
                  #          Department of theory and spectroscopy      #
                  #    Directorship and core code : Frank Neese         #
                  #        Max Planck Institute fuer Kohlenforschung    #
                  #                Kaiser Wilhelm Platz 1               #
                  #                 D-45470 Muelheim/Ruhr               #
                  #                      Germany                        #
                  #                                                     #
                  #                  All rights reserved                #
                  #                        -***-                        #
                  #######################################################


                         Program Version 5.0.3 -  RELEASE  -


 With contributions from (in alphabetic order):
   Daniel Aravena         : Magnetic Suceptibility
   Michael Atanasov       : Ab Initio Ligand Field Theory (pilot matlab implementation)
   Alexander A. Auer      : GIAO ZORA, VPT2 properties, NMR spectrum
   Ute Becker             : Parallelization
   Giovanni Bistoni       : ED, misc. LED, open-shell LED, HFLD
   Martin Brehm           : Molecular dynamics
   Dmytro Bykov           : SCF Hessian
   Vijay G. Chilkuri      : MRCI spin determinant printing, contributions to CSF-ICE
   Dipayan Datta          : RHF DLPNO-CCSD density
   Achintya Kumar Dutta   : EOM-CC, STEOM-CC
   Dmitry Ganyushin       : Spin-Orbit,Spin-Spin,Magnetic field MRCI
   Miquel Garcia          : C-PCM and meta-GGA Hessian, CC/C-PCM, Gaussian charge scheme
   Yang Guo               : DLPNO-NEVPT2, F12-NEVPT2, CIM, IAO-localization
   Andreas Hansen         : Spin unrestricted coupled pair/coupled cluster methods
   Benjamin Helmich-Paris : MC-RPA, TRAH-SCF, COSX integrals
   Lee Huntington         : MR-EOM, pCC
   Robert Izsak           : Overlap fitted RIJCOSX, COSX-SCS-MP3, EOM
   Marcus Kettner         : VPT2
   Christian Kollmar      : KDIIS, OOCD, Brueckner-CCSD(T), CCSD density, CASPT2, CASPT2-K
   Simone Kossmann        : Meta GGA functionals, TD-DFT gradient, OOMP2, MP2 Hessian
   Martin Krupicka        : Initial AUTO-CI
   Lucas Lang             : DCDCAS
   Marvin Lechner         : AUTO-CI (C++ implementation), FIC-MRCC
   Dagmar Lenk            : GEPOL surface, SMD
   Dimitrios Liakos       : Extrapolation schemes; Compound Job, initial MDCI parallelization
   Dimitrios Manganas     : Further ROCIS development; embedding schemes
   Dimitrios Pantazis     : SARC Basis sets
   Anastasios Papadopoulos: AUTO-CI, single reference methods and gradients
   Taras Petrenko         : DFT Hessian,TD-DFT gradient, ASA, ECA, R-Raman, ABS, FL, XAS/XES, NRVS
   Peter Pinski           : DLPNO-MP2, DLPNO-MP2 Gradient
   Christoph Reimann      : Effective Core Potentials
   Marius Retegan         : Local ZFS, SOC
   Christoph Riplinger    : Optimizer, TS searches, QM/MM, DLPNO-CCSD(T), (RO)-DLPNO pert. Triples
   Tobias Risthaus        : Range-separated hybrids, TD-DFT gradient, RPA, STAB
   Michael Roemelt        : Original ROCIS implementation
   Masaaki Saitow         : Open-shell DLPNO-CCSD energy and density
   Barbara Sandhoefer     : DKH picture change effects
   Avijit Sen             : IP-ROCIS
   Kantharuban Sivalingam : CASSCF convergence, NEVPT2, FIC-MRCI
   Bernardo de Souza      : ESD, SOC TD-DFT
   Georgi Stoychev        : AutoAux, RI-MP2 NMR, DLPNO-MP2 response
   Willem Van den Heuvel  : Paramagnetic NMR
   Boris Wezisla          : Elementary symmetry handling
   Frank Wennmohs         : Technical directorship


 We gratefully acknowledge several colleagues who have allowed us to
 interface, adapt or use parts of their codes:
   Stefan Grimme, W. Hujo, H. Kruse, P. Pracht,  : VdW corrections, initial TS optimization,
                  C. Bannwarth, S. Ehlert          DFT functionals, gCP, sTDA/sTD-DF
   Ed Valeev, F. Pavosevic, A. Kumar             : LibInt (2-el integral package), F12 methods
   Garnet Chan, S. Sharma, J. Yang, R. Olivares  : DMRG
   Ulf Ekstrom                                   : XCFun DFT Library
   Mihaly Kallay                                 : mrcc  (arbitrary order and MRCC methods)
   Jiri Pittner, Ondrej Demel                    : Mk-CCSD
   Frank Weinhold                                : gennbo (NPA and NBO analysis)
   Christopher J. Cramer and Donald G. Truhlar   : smd solvation model
   Lars Goerigk                                  : TD-DFT with DH, B97 family of functionals
   V. Asgeirsson, H. Jonsson                     : NEB implementation
   FAccTs GmbH                                   : IRC, NEB, NEB-TS, DLPNO-Multilevel, CI-OPT
                                                   MM, QMMM, 2- and 3-layer-ONIOM, Crystal-QMMM,
                                                   LR-CPCM, SF, NACMEs, symmetry and pop. for TD-DFT,
                                                   nearIR, NL-DFT gradient (VV10), updates on ESD,
                                                   ML-optimized integration grids
   S Lehtola, MJT Oliveira, MAL Marques          : LibXC Library
   Liviu Ungur et al                             : ANISO software


 Your calculation uses the libint2 library for the computation of 2-el integrals
 For citations please refer to: http://libint.valeyev.net

 Your ORCA version has been built with support for libXC version: 5.1.0
 For citations please refer to: https://tddft.org/programs/libxc/

 This ORCA versions uses:
   CBLAS   interface :  Fast vector & matrix operations
   LAPACKE interface :  Fast linear algebra routines
   SCALAPACK package :  Parallel linear algebra routines
   Shared memory     :  Shared parallel matrices
   BLAS/LAPACK       :  OpenBLAS 0.3.15  USE64BITINT DYNAMIC_ARCH NO_AFFINITY Haswell SINGLE_THREADED
        Core in use  :  Haswell
   Copyright (c) 2011-2014, The OpenBLAS Project




***************************************
The coordinates will be read from file: P17.xyz
***************************************


Your calculation utilizes the geometrical counterpoise correction gCP
Please cite in your paper:
H.Kruse, S. Grimme J.Chem.Phys., 136, (2012), 154101 
   

Your calculation utilizes the atom-pairwise dispersion correction
with the Becke-Johnson damping scheme (D3BJ)
Cite in your paper:
S.Grimme, S.Ehrlich, L.Goerigk, J Comput Chem, (2011), 32, 1456–1465 
S.Grimme, J.Antony, S.Ehrlich and H.Krieg, J.Chem.Phys., 132, (2010), 154104 
   

Your calculation employs the composite approach PBEh-3c.
Please cite in your paper:
S. Grimme, J. G. Brandenburg, C. Bannwarth, A. Hansen J.Chem.Phys., 143, (2015), 054107 
   

================================================================================

----- Orbital basis set information -----
Your calculation utilizes the basis: def2-mSVP

----- AuxJ basis set information -----
Your calculation utilizes the auxiliary basis: def2/J
   F. Weigend, Phys. Chem. Chem. Phys. 8, 1057 (2006).

================================================================================
                                        WARNINGS
                       Please study these warnings very carefully!
================================================================================


INFO   : the flag for use of the SHARK integral package has been found!

================================================================================
                                       INPUT FILE
================================================================================
NAME = pbeh-3c.inp
|  1> ! PBEh-3c def2/J TightSCF DefGrid3
|  2> 
|  3> %maxcore 60000
|  4> 
|  5> %pal
|  6> nprocs 4
|  7> end
|  8> 
|  9> *xyzfile 0 1 P17.xyz
| 10> 
| 11>                          ****END OF INPUT****
================================================================================

                       ****************************
                       * Single Point Calculation *
                       ****************************

---------------------------------
CARTESIAN COORDINATES (ANGSTROEM)
---------------------------------
  C      0.128383    1.817067   -0.186149
  N     -0.486924    0.519268    0.046418
  N      0.486924   -0.519268    0.046418
  C     -0.128383   -1.817067   -0.186149
  H     -0.649799    2.582884   -0.148956
  H      0.579280    1.824615   -1.178700
  H      0.908890    2.081037    0.545743
  H     -1.011728    0.530122    0.921644
  H      1.011728   -0.530122    0.921644
  H     -0.579280   -1.824615   -1.178700
  H      0.649799   -2.582884   -0.148956
  H     -0.908890   -2.081037    0.545743

----------------------------
CARTESIAN COORDINATES (A.U.)
----------------------------
  NO LB      ZA    FRAG     MASS         X           Y           Z
   0 C     6.0000    0    12.011    0.242608    3.433758   -0.351771
   1 N     7.0000    0    14.007   -0.920154    0.981274    0.087717
   2 N     7.0000    0    14.007    0.920154   -0.981274    0.087717
   3 C     6.0000    0    12.011   -0.242608   -3.433758   -0.351771
   4 H     1.0000    0     1.008   -1.227943    4.880944   -0.281487
   5 H     1.0000    0     1.008    1.094681    3.448023   -2.227420
   6 H     1.0000    0     1.008    1.717553    3.932590    1.031305
   7 H     1.0000    0     1.008   -1.911888    1.001784    1.741655
   8 H     1.0000    0     1.008    1.911888   -1.001784    1.741655
   9 H     1.0000    0     1.008   -1.094681   -3.448023   -2.227420
  10 H     1.0000    0     1.008    1.227943   -4.880944   -0.281487
  11 H     1.0000    0     1.008   -1.717553   -3.932590    1.031305

--------------------------------
INTERNAL COORDINATES (ANGSTROEM)
--------------------------------
 C      0   0   0     0.000000000000     0.00000000     0.00000000
 N      1   0   0     1.454982100707     0.00000000     0.00000000
 N      2   1   0     1.423705605754   111.18518906     0.00000000
 C      3   2   1     1.454982100707   111.18518906   199.74167277
 H      1   2   3     1.092440979644   108.57818534   181.61207737
 H      1   2   3     1.090193749889   109.06312293    63.30642887
 H      1   2   3     1.102061020490   114.01659599   302.43522094
 H      2   1   3     1.020567016313   110.18530999   123.59209220
 H      3   2   1     1.020567016313   111.06959410    76.65557185
 H      4   3   2     1.090193749889   109.06312293    63.30642887
 H      4   3   2     1.092440979644   108.57818534   181.61207737
 H      4   3   2     1.102061020490   114.01659599   302.43522094

---------------------------
INTERNAL COORDINATES (A.U.)
---------------------------
 C      0   0   0     0.000000000000     0.00000000     0.00000000
 N      1   0   0     2.749517700093     0.00000000     0.00000000
 N      2   1   0     2.690413690203   111.18518906     0.00000000
 C      3   2   1     2.749517700093   111.18518906   199.74167277
 H      1   2   3     2.064414269000   108.57818534   181.61207737
 H      1   2   3     2.060167620203   109.06312293    63.30642887
 H      1   2   3     2.082593511597   114.01659599   302.43522094
 H      2   1   3     1.928592162145   110.18530999   123.59209220
 H      3   2   1     1.928592162145   111.06959410    76.65557185
 H      4   3   2     2.060167620203   109.06312293    63.30642887
 H      4   3   2     2.064414269000   108.57818534   181.61207737
 H      4   3   2     2.082593511597   114.01659599   302.43522094

---------------------
BASIS SET INFORMATION
---------------------
There are 3 groups of distinct atoms

 Group   1 Type C   : 8s4p1d contracted to 4s2p1d pattern {5111/31/1}
 Group   2 Type N   : 8s4p1d contracted to 4s2p1d pattern {5111/31/1}
 Group   3 Type H   : 4s contracted to 2s pattern {31}

Atom   0C    basis set group =>   1
Atom   1N    basis set group =>   2
Atom   2N    basis set group =>   2
Atom   3C    basis set group =>   1
Atom   4H    basis set group =>   3
Atom   5H    basis set group =>   3
Atom   6H    basis set group =>   3
Atom   7H    basis set group =>   3
Atom   8H    basis set group =>   3
Atom   9H    basis set group =>   3
Atom  10H    basis set group =>   3
Atom  11H    basis set group =>   3
---------------------------------
AUXILIARY/J BASIS SET INFORMATION
---------------------------------
There are 3 groups of distinct atoms

 Group   1 Type C   : 12s5p4d2f1g contracted to 6s4p3d1f1g pattern {711111/2111/211/2/1}
 Group   2 Type N   : 12s5p4d2f1g contracted to 6s4p3d1f1g pattern {711111/2111/211/2/1}
 Group   3 Type H   : 5s2p1d contracted to 3s1p1d pattern {311/2/1}

Atom   0C    basis set group =>   1
Atom   1N    basis set group =>   2
Atom   2N    basis set group =>   2
Atom   3C    basis set group =>   1
Atom   4H    basis set group =>   3
Atom   5H    basis set group =>   3
Atom   6H    basis set group =>   3
Atom   7H    basis set group =>   3
Atom   8H    basis set group =>   3
Atom   9H    basis set group =>   3
Atom  10H    basis set group =>   3
Atom  11H    basis set group =>   3


           ************************************************************
           *        Program running with 4 parallel MPI-processes     *
           *              working on a common directory               *
           ************************************************************
------------------------------------------------------------------------------
                           ORCA GTO INTEGRAL CALCULATION
                           -- RI-GTO INTEGRALS CHOSEN --
------------------------------------------------------------------------------
------------------------------------------------------------------------------
                   ___                                                        
                  /   \      - P O W E R E D   B Y -                         
                 /     \                                                     
                 |  |  |   _    _      __       _____    __    __             
                 |  |  |  | |  | |    /  \     |  _  \  |  |  /  |          
                  \  \/   | |  | |   /    \    | | | |  |  | /  /          
                 / \  \   | |__| |  /  /\  \   | |_| |  |  |/  /          
                |  |  |   |  __  | /  /__\  \  |    /   |      \           
                |  |  |   | |  | | |   __   |  |    \   |  |\   \          
                \     /   | |  | | |  |  |  |  | |\  \  |  | \   \       
                 \___/    |_|  |_| |__|  |__|  |_| \__\ |__|  \__/        
                                                                              
                      - O R C A' S   B I G   F R I E N D -                    
                                      &                                       
                       - I N T E G R A L  F E E D E R -                       
                                                                              
 v1 FN, 2020, v2 2021                                                         
------------------------------------------------------------------------------


Reading SHARK input file pbeh-3c.SHARKINP.tmp ... ok
----------------------
SHARK INTEGRAL PACKAGE
----------------------

Number of atoms                             ...     12
Number of basis functions                   ...     76
Number of shells                            ...     44
Maximum angular momentum                    ...      2
Integral batch strategy                     ... SHARK/LIBINT Hybrid
RI-J (if used) integral strategy            ... SPLIT-RIJ (Revised 2003 algorithm where possible)
Printlevel                                  ...      1
Contraction scheme used                     ... SEGMENTED contraction
Coulomb Range Separation                    ... NOT USED
Exchange Range Separation                   ... NOT USED
Finite Nucleus Model                        ... NOT USED
Auxiliary Coulomb fitting basis             ... AVAILABLE
   # of basis functions in Aux-J            ...    284
   # of shells in Aux-J                     ...    100
   Maximum angular momentum in Aux-J        ...      4
Auxiliary J/K fitting basis                 ... NOT available
Auxiliary Correlation fitting basis         ... NOT available
Auxiliary 'external' fitting basis          ... NOT available
Integral threshold                          ...     2.500000e-11
Primitive cut-off                           ...     2.500000e-12
Primitive pair pre-selection threshold      ...     2.500000e-12

Calculating pre-screening integrals         ... done (  0.0 sec) Dimension = 44
Organizing shell pair data                  ... done (  0.3 sec)
Shell pair information
Total number of shell pairs                 ...       990
Shell pairs after pre-screening             ...       954
Total number of primitive shell pairs       ...      3646
Primitive shell pairs kept                  ...      2674
          la=0 lb=0:    496 shell pairs
          la=1 lb=0:    256 shell pairs
          la=1 lb=1:     36 shell pairs
          la=2 lb=0:    124 shell pairs
          la=2 lb=1:     32 shell pairs
          la=2 lb=2:     10 shell pairs

Calculating one electron integrals          ... done (  0.0 sec)
Calculating RI/J V-Matrix + Cholesky decomp.... done (  0.2 sec)
Calculating Nuclear repulsion               ... done (  0.0 sec) ENN=    134.758520748637 Eh

SHARK setup successfully completed in   1.2 seconds

Maximum memory used throughout the entire GTOINT-calculation: 9.7 MB


           ************************************************************
           *        Program running with 4 parallel MPI-processes     *
           *              working on a common directory               *
           ************************************************************
-------------------------------------------------------------------------------
                                 ORCA SCF
-------------------------------------------------------------------------------

------------
SCF SETTINGS
------------
Hamiltonian:
 Density Functional     Method          .... DFT(GTOs)
 Exchange Functional    Exchange        .... PBE
   PBE kappa parameter   XKappa         ....  1.024500
   PBE mue parameter    XMuePBE         ....  0.123457
 Correlation Functional Correlation     .... PBE
   PBE beta parameter  CBetaPBE         ....  0.030000
 LDA part of GGA corr.  LDAOpt          .... PW91-LDA
 Gradients option       PostSCFGGA      .... off
 Hybrid DFT is turned on
   Fraction HF Exchange ScalHFX         ....  0.420000
   Scaling of DF-GGA-X  ScalDFX         ....  0.580000
   Scaling of DF-GGA-C  ScalDFC         ....  1.000000
   Scaling of DF-LDA-C  ScalLDAC        ....  1.000000
   Perturbative correction              ....  0.000000
   Density functional embedding theory  .... OFF
 RI-approximation to the Coulomb term is turned on
   Number of AuxJ basis functions       .... 284
   RIJ-ON(X) (HFX calculated with O(N)) .... on
   Number of AuxJ basis functions       .... 284
   RIJ-COSX (HFX calculated with COS-X)).... on


General Settings:
 Integral files         IntName         .... pbeh-3c
 Hartree-Fock type      HFTyp           .... RHF
 Total Charge           Charge          ....    0
 Multiplicity           Mult            ....    1
 Number of Electrons    NEL             ....   34
 Basis Dimension        Dim             ....   76
 Nuclear Repulsion      ENuc            ....    134.7585207486 Eh

Convergence Acceleration:
 DIIS                   CNVDIIS         .... on
   Start iteration      DIISMaxIt       ....    12
   Startup error        DIISStart       ....  0.200000
   # of expansion vecs  DIISMaxEq       ....     5
   Bias factor          DIISBfac        ....   1.050
   Max. coefficient     DIISMaxC        ....  10.000
 Trust-Rad. Augm. Hess. CNVTRAH         .... auto
   Auto Start mean grad. ratio tolernc. ....  1.125000
   Auto Start start iteration           ....    20
   Auto Start num. interpolation iter.  ....    10
   Max. Number of Micro iterations      ....    16
   Max. Number of Macro iterations      .... Maxiter - #DIIS iter
   Number of Davidson start vectors     ....     2
   Converg. threshold I  (grad. norm)   ....   1.000e-05
   Converg. threshold II (energy diff.) ....   1.000e-08
   Grad. Scal. Fac. for Micro threshold ....   0.100
   Minimum threshold for Micro iter.    ....   0.010
   NR start threshold (gradient norm)   ....   0.001
   Initial trust radius                 ....   0.400
   Minimum AH scaling param. (alpha)    ....   1.000
   Maximum AH scaling param. (alpha)    .... 1000.000
   Orbital update algorithm             .... Taylor
   White noise on init. David. guess    .... on
   Maximum white noise                  ....   0.010
   Quad. conv. algorithm                .... NR
   COSX micro iterations for RIJONX calc.... off
 SOSCF                  CNVSOSCF        .... on
   Start iteration      SOSCFMaxIt      ....   150
   Startup grad/error   SOSCFStart      ....  0.003300
 Level Shifting         CNVShift        .... on
   Level shift para.    LevelShift      ....    0.2500
   Turn off err/grad.   ShiftErr        ....    0.0010
 Zerner damping         CNVZerner       .... off
 Static damping         CNVDamp         .... on
   Fraction old density DampFac         ....    0.7000
   Max. Damping (<1)    DampMax         ....    0.9800
   Min. Damping (>=0)   DampMin         ....    0.0000
   Turn off err/grad.   DampErr         ....    0.1000
 Fernandez-Rico         CNVRico         .... off

SCF Procedure:
 Maximum # iterations   MaxIter         ....   125
 SCF integral mode      SCFMode         .... Direct
   Integral package                     .... SHARK and LIBINT hybrid scheme
 Reset frequency        DirectResetFreq ....    20
 Integral Threshold     Thresh          ....  2.500e-11 Eh
 Primitive CutOff       TCut            ....  2.500e-12 Eh

Convergence Tolerance:
 Convergence Check Mode ConvCheckMode   .... Total+1el-Energy
 Convergence forced     ConvForced      .... 0
 Energy Change          TolE            ....  1.000e-08 Eh
 1-El. energy change                    ....  1.000e-05 Eh
 Orbital Gradient       TolG            ....  1.000e-05
 Orbital Rotation angle TolX            ....  1.000e-05
 DIIS Error             TolErr          ....  5.000e-07


Diagonalization of the overlap matrix:
Smallest eigenvalue                        ... 1.076e-02
Time for diagonalization                   ...    0.002 sec
Threshold for overlap eigenvalues          ... 1.000e-08
Number of eigenvalues below threshold      ... 0
Time for construction of square roots      ...    0.052 sec
Total time needed                          ...    0.054 sec

--------------------------------
INITIAL GUESS: MINIMAL BASIS EHT
--------------------------------
The minimal basis has 28 functions
EHT matrix was diagonalized
Basis set overlap was calculated now projecting the orbitals
Using GuessMode=FMatrix for the initial guess
C*T matrix was formed
Effective Fockian was calculated
Effective Fockian was diagonalized
Initial density was built
                      ------------------
                      INITIAL GUESS DONE
                      ------------------
-------------------
DFT GRID GENERATION
-------------------

General Integration Accuracy     IntAcc      ... 4.959
Radial Grid Type                 RadialGrid  ... OptM3 with GC (2021)
Angular Grid (max. ang.)         AngularGrid ... 6 (Lebedev-590)
Angular grid pruning method      GridPruning ... 4 (adaptive)
Weight generation scheme         WeightScheme... Becke
Basis function cutoff            BFCut       ... 1.0000e-11
Integration weight cutoff        WCut        ... 1.0000e-14
Angular grids for H and He will be reduced by one unit
Partially contracted basis set               ... off
Rotationally invariant grid construction     ... off

Total number of grid points                  ...   128204
Total number of batches                      ...     2010
Average number of points per batch           ...       63
Average number of grid points per atom       ...    10684
Time for grid setup =    1.950 sec

--------------------
COSX GRID GENERATION
--------------------

GRIDX 1
-------
General Integration Accuracy     IntAcc      ... 4.020
Radial Grid Type                 RadialGrid  ... OptM3 with GC (2021)
Angular Grid (max. ang.)         AngularGrid ... 2 (Lebedev-110)
Angular grid pruning method      GridPruning ... 4 (adaptive)
Weight generation scheme         WeightScheme... Becke
Basis function cutoff            BFCut       ... 1.0000e-11
Integration weight cutoff        WCut        ... 1.0000e-14
Angular grids for H and He will be reduced by one unit
Partially contracted basis set               ... on
Rotationally invariant grid construction     ... off

Total number of grid points                  ...    13518
Total number of batches                      ...      218
Average number of points per batch           ...       62
Average number of grid points per atom       ...     1126
UseSFitting                                  ... on

GRIDX 2
-------
General Integration Accuracy     IntAcc      ... 4.338
Radial Grid Type                 RadialGrid  ... OptM3 with GC (2021)
Angular Grid (max. ang.)         AngularGrid ... 3 (Lebedev-194)
Angular grid pruning method      GridPruning ... 4 (adaptive)
Weight generation scheme         WeightScheme... Becke
Basis function cutoff            BFCut       ... 1.0000e-11
Integration weight cutoff        WCut        ... 1.0000e-14
Angular grids for H and He will be reduced by one unit
Partially contracted basis set               ... on
Rotationally invariant grid construction     ... off

Total number of grid points                  ...    29604
Total number of batches                      ...      470
Average number of points per batch           ...       62
Average number of grid points per atom       ...     2467
UseSFitting                                  ... on

GRIDX 3
-------
General Integration Accuracy     IntAcc      ... 4.871
Radial Grid Type                 RadialGrid  ... OptM3 with GC (2021)
Angular Grid (max. ang.)         AngularGrid ... 4 (Lebedev-302)
Angular grid pruning method      GridPruning ... 4 (adaptive)
Weight generation scheme         WeightScheme... Becke
Basis function cutoff            BFCut       ... 1.0000e-11
Integration weight cutoff        WCut        ... 1.0000e-14
Angular grids for H and He will be reduced by one unit
Partially contracted basis set               ... on
Rotationally invariant grid construction     ... off

Total number of grid points                  ...    59364
Total number of batches                      ...      934
Average number of points per batch           ...       63
Average number of grid points per atom       ...     4947
UseSFitting                                  ... on

Time for X-Grid setup             =    2.902 sec

--------------
SCF ITERATIONS
--------------
ITER       Energy         Delta-E        Max-DP      RMS-DP      [F,P]     Damp
               ***  Starting incremental Fock matrix formation  ***
  0   -189.6599260904   0.000000000000 0.09082627  0.00467330  0.3824643 0.7000
  1   -189.7917684983  -0.131842407947 0.05786702  0.00327155  0.2749142 0.7000
                               ***Turning on DIIS***
  2   -189.8762432174  -0.084474719119 0.03342028  0.00219163  0.1965336 0.7000
  3   -189.9349977915  -0.058754574051 0.02299851  0.00155905  0.1397267 0.7000
  4   -189.9768813187  -0.041883527192 0.05535522  0.00407558  0.0975772 0.0000
  5   -190.0786882597  -0.101806941077 0.00910614  0.00047472  0.0055694 0.0000
                      *** Initiating the SOSCF procedure ***
                           *** Shutting down DIIS ***
                      *** Re-Reading the Fockian *** 
                      *** Removing any level shift *** 
ITER      Energy       Delta-E        Grad      Rot      Max-DP    RMS-DP
  6   -190.07891741  -0.0002291461  0.001494  0.001494  0.004172  0.000206
               *** Restarting incremental Fock matrix formation ***
  7   -190.07898055  -0.0000631401  0.000990  0.002245  0.004557  0.000194
  8   -190.07899614  -0.0000155919  0.000255  0.000839  0.001597  0.000071
  9   -190.07899747  -0.0000013340  0.000048  0.000052  0.000137  0.000007
 10   -190.07899751  -0.0000000418  0.000023  0.000040  0.000067  0.000004
 11   -190.07899753  -0.0000000213  0.000004  0.000003  0.000008  0.000000
                  ***Gradient check signals convergence***
              ***Rediagonalizing the Fockian in SOSCF/NRSCF***

               *****************************************************
               *                     SUCCESS                       *
               *           SCF CONVERGED AFTER  12 CYCLES          *
               *****************************************************

Old exchange energy                            =    -11.089582861 Eh
New exchange energy                            =    -11.089588606 Eh
Exchange energy change after final integration =     -0.000005745 Eh
Total energy after final integration           =   -190.079003281 Eh
Final COS-X integration done in                =     1.237 sec

----------------
TOTAL SCF ENERGY
----------------

Total Energy       :         -190.07900328 Eh           -5172.31263 eV

Components:
Nuclear Repulsion  :          134.75852075 Eh            3666.96577 eV
Electronic Energy  :         -324.83752403 Eh           -8839.27841 eV
One Electron Energy:         -523.26812424 Eh          -14238.84955 eV
Two Electron Energy:          198.43060021 Eh            5399.57114 eV
Max COSX asymmetry :            0.00000117 Eh               0.00003 eV

Virial components:
Potential Energy   :         -378.65720804 Eh          -10303.78647 eV
Kinetic Energy     :          188.57820476 Eh            5131.47383 eV
Virial Ratio       :            2.00795849


DFT components:
N(Alpha)           :       17.000000979897 electrons
N(Beta)            :       17.000000979897 electrons
N(Total)           :       34.000001959794 electrons
E(X)               :      -14.726760736766 Eh       
E(C)               :       -1.456538109165 Eh       
E(XC)              :      -16.183298845931 Eh       
DFET-embed. en.    :        0.000000000000 Eh       

---------------
SCF CONVERGENCE
---------------

  Last Energy change         ...   -6.0209e-10  Tolerance :   1.0000e-08
  Last MAX-Density change    ...    5.5511e-16  Tolerance :   1.0000e-07
  Last RMS-Density change    ...    4.9756e-17  Tolerance :   5.0000e-09
  Last Orbital Gradient      ...    2.3279e-06  Tolerance :   1.0000e-05
  Last Orbital Rotation      ...    1.4315e-06  Tolerance :   1.0000e-05

             **** THE GBW FILE WAS UPDATED (pbeh-3c.gbw) ****
             **** DENSITY pbeh-3c.scfp WAS UPDATED ****
             **** ENERGY FILE WAS UPDATED (pbeh-3c.en.tmp) ****
             **** THE GBW FILE WAS UPDATED (pbeh-3c.gbw) ****
             **** DENSITY pbeh-3c.scfp WAS UPDATED ****
----------------
ORBITAL ENERGIES
----------------

  NO   OCC          E(Eh)            E(eV) 
   0   2.0000     -14.638181      -398.3252 
   1   2.0000     -14.638065      -398.3220 
   2   2.0000     -10.445859      -284.2463 
   3   2.0000     -10.445855      -284.2462 
   4   2.0000      -1.060775       -28.8652 
   5   2.0000      -0.890906       -24.2428 
   6   2.0000      -0.744843       -20.2682 
   7   2.0000      -0.702198       -19.1078 
   8   2.0000      -0.581307       -15.8182 
   9   2.0000      -0.523525       -14.2459 
  10   2.0000      -0.506062       -13.7707 
  11   2.0000      -0.468416       -12.7462 
  12   2.0000      -0.439173       -11.9505 
  13   2.0000      -0.430816       -11.7231 
  14   2.0000      -0.414186       -11.2706 
  15   2.0000      -0.292119        -7.9490 
  16   2.0000      -0.264748        -7.2042 
  17   0.0000       0.127196         3.4612 
  18   0.0000       0.175783         4.7833 
  19   0.0000       0.189281         5.1506 
  20   0.0000       0.209532         5.7017 
  21   0.0000       0.211190         5.7468 
  22   0.0000       0.220783         6.0078 
  23   0.0000       0.229134         6.2351 
  24   0.0000       0.244396         6.6504 
  25   0.0000       0.259307         7.0561 
  26   0.0000       0.262923         7.1545 
  27   0.0000       0.307567         8.3693 
  28   0.0000       0.517890        14.0925 
  29   0.0000       0.526918        14.3382 
  30   0.0000       0.545619        14.8470 
  31   0.0000       0.547165        14.8891 
  32   0.0000       0.574501        15.6330 
  33   0.0000       0.647993        17.6328 
  34   0.0000       0.800898        21.7935 
  35   0.0000       0.831705        22.6318 
  36   0.0000       0.870558        23.6891 
  37   0.0000       0.890041        24.2193 
  38   0.0000       0.922890        25.1131 
  39   0.0000       1.005245        27.3541 
  40   0.0000       1.010465        27.4962 
  41   0.0000       1.013617        27.5819 
  42   0.0000       1.031370        28.0650 
  43   0.0000       1.057143        28.7663 
  44   0.0000       1.067447        29.0467 
  45   0.0000       1.068338        29.0709 
  46   0.0000       1.088391        29.6166 
  47   0.0000       1.140981        31.0477 
  48   0.0000       1.155812        31.4513 
  49   0.0000       1.368197        37.2305 
  50   0.0000       1.464291        39.8454 
  51   0.0000       1.484341        40.3910 
  52   0.0000       1.565572        42.6014 
  53   0.0000       1.566310        42.6215 
  54   0.0000       1.796254        48.8785 
  55   0.0000       1.939487        52.7761 
  56   0.0000       1.975461        53.7550 
  57   0.0000       2.014336        54.8129 
  58   0.0000       2.091560        56.9143 
  59   0.0000       2.139896        58.2295 
  60   0.0000       2.143589        58.3300 
  61   0.0000       2.161493        58.8172 
  62   0.0000       2.255218        61.3676 
  63   0.0000       2.348948        63.9181 
  64   0.0000       2.364464        64.3403 
  65   0.0000       2.383323        64.8535 
  66   0.0000       2.492053        67.8122 
  67   0.0000       2.527112        68.7662 
  68   0.0000       2.540242        69.1235 
  69   0.0000       2.748146        74.7809 
  70   0.0000       2.840688        77.2990 
  71   0.0000       2.923301        79.5471 
  72   0.0000      13.742245       373.9455 
  73   0.0000      13.768496       374.6598 
  74   0.0000      19.109617       519.9991 
  75   0.0000      19.262663       524.1637 

                    ********************************
                    * MULLIKEN POPULATION ANALYSIS *
                    ********************************

-----------------------
MULLIKEN ATOMIC CHARGES
-----------------------
   0 C :   -0.471155
   1 N :   -0.441769
   2 N :   -0.441769
   3 C :   -0.471155
   4 H :    0.206070
   5 H :    0.232788
   6 H :    0.173673
   7 H :    0.300392
   8 H :    0.300392
   9 H :    0.232788
  10 H :    0.206070
  11 H :    0.173673
Sum of atomic charges:   -0.0000000

--------------------------------
MULLIKEN REDUCED ORBITAL CHARGES
--------------------------------
  0 C s       :     3.329766  s :     3.329766
      pz      :     1.142525  p :     3.090047
      px      :     1.069939
      py      :     0.877583
      dz2     :     0.010152  d :     0.051342
      dxz     :     0.011545
      dyz     :     0.006920
      dx2y2   :     0.006929
      dxy     :     0.015795
  1 N s       :     3.574123  s :     3.574123
      pz      :     1.489587  p :     3.813971
      px      :     1.300787
      py      :     1.023597
      dz2     :     0.012297  d :     0.053675
      dxz     :     0.009650
      dyz     :     0.006052
      dx2y2   :     0.009665
      dxy     :     0.016011
  2 N s       :     3.574123  s :     3.574123
      pz      :     1.489587  p :     3.813971
      px      :     1.300787
      py      :     1.023597
      dz2     :     0.012297  d :     0.053675
      dxz     :     0.009650
      dyz     :     0.006052
      dx2y2   :     0.009665
      dxy     :     0.016011
  3 C s       :     3.329766  s :     3.329766
      pz      :     1.142525  p :     3.090047
      px      :     1.069939
      py      :     0.877583
      dz2     :     0.010152  d :     0.051342
      dxz     :     0.011545
      dyz     :     0.006920
      dx2y2   :     0.006929
      dxy     :     0.015795
  4 H s       :     0.793930  s :     0.793930
  5 H s       :     0.767212  s :     0.767212
  6 H s       :     0.826327  s :     0.826327
  7 H s       :     0.699608  s :     0.699608
  8 H s       :     0.699608  s :     0.699608
  9 H s       :     0.767212  s :     0.767212
 10 H s       :     0.793930  s :     0.793930
 11 H s       :     0.826327  s :     0.826327


                     *******************************
                     * LOEWDIN POPULATION ANALYSIS *
                     *******************************

----------------------
LOEWDIN ATOMIC CHARGES
----------------------
   0 C :   -0.272175
   1 N :   -0.270704
   2 N :   -0.270704
   3 C :   -0.272175
   4 H :    0.119021
   5 H :    0.129104
   6 H :    0.090402
   7 H :    0.204353
   8 H :    0.204353
   9 H :    0.129104
  10 H :    0.119021
  11 H :    0.090402

-------------------------------
LOEWDIN REDUCED ORBITAL CHARGES
-------------------------------
  0 C s       :     2.953302  s :     2.953302
      pz      :     1.137976  p :     3.219717
      px      :     1.101059
      py      :     0.980682
      dz2     :     0.018206  d :     0.099157
      dxz     :     0.020844
      dyz     :     0.013978
      dx2y2   :     0.014437
      dxy     :     0.031692
  1 N s       :     3.192339  s :     3.192339
      pz      :     1.485416  p :     3.966036
      px      :     1.360476
      py      :     1.120143
      dz2     :     0.020589  d :     0.112330
      dxz     :     0.018622
      dyz     :     0.013636
      dx2y2   :     0.023684
      dxy     :     0.035799
  2 N s       :     3.192339  s :     3.192339
      pz      :     1.485416  p :     3.966036
      px      :     1.360476
      py      :     1.120143
      dz2     :     0.020589  d :     0.112330
      dxz     :     0.018622
      dyz     :     0.013636
      dx2y2   :     0.023684
      dxy     :     0.035799
  3 C s       :     2.953302  s :     2.953302
      pz      :     1.137976  p :     3.219717
      px      :     1.101059
      py      :     0.980682
      dz2     :     0.018206  d :     0.099157
      dxz     :     0.020844
      dyz     :     0.013978
      dx2y2   :     0.014437
      dxy     :     0.031692
  4 H s       :     0.880979  s :     0.880979
  5 H s       :     0.870896  s :     0.870896
  6 H s       :     0.909598  s :     0.909598
  7 H s       :     0.795647  s :     0.795647
  8 H s       :     0.795647  s :     0.795647
  9 H s       :     0.870896  s :     0.870896
 10 H s       :     0.880979  s :     0.880979
 11 H s       :     0.909598  s :     0.909598


                      *****************************
                      * MAYER POPULATION ANALYSIS *
                      *****************************

  NA   - Mulliken gross atomic population
  ZA   - Total nuclear charge
  QA   - Mulliken gross atomic charge
  VA   - Mayer's total valence
  BVA  - Mayer's bonded valence
  FA   - Mayer's free valence

  ATOM       NA         ZA         QA         VA         BVA        FA
  0 C      6.4712     6.0000    -0.4712     3.7607     3.7607     0.0000
  1 N      7.4418     7.0000    -0.4418     2.8601     2.8601    -0.0000
  2 N      7.4418     7.0000    -0.4418     2.8601     2.8601    -0.0000
  3 C      6.4712     6.0000    -0.4712     3.7607     3.7607    -0.0000
  4 H      0.7939     1.0000     0.2061     0.9182     0.9182     0.0000
  5 H      0.7672     1.0000     0.2328     0.9095     0.9095    -0.0000
  6 H      0.8263     1.0000     0.1737     0.9153     0.9153     0.0000
  7 H      0.6996     1.0000     0.3004     0.8624     0.8624     0.0000
  8 H      0.6996     1.0000     0.3004     0.8624     0.8624     0.0000
  9 H      0.7672     1.0000     0.2328     0.9095     0.9095    -0.0000
 10 H      0.7939     1.0000     0.2061     0.9182     0.9182    -0.0000
 11 H      0.8263     1.0000     0.1737     0.9153     0.9153     0.0000

  Mayer bond orders larger than 0.100000
B(  0-C ,  1-N ) :   0.9996 B(  0-C ,  4-H ) :   0.9268 B(  0-C ,  5-H ) :   0.9174 
B(  0-C ,  6-H ) :   0.9163 B(  1-N ,  2-N ) :   0.9901 B(  1-N ,  7-H ) :   0.8481 
B(  2-N ,  3-C ) :   0.9996 B(  2-N ,  8-H ) :   0.8481 B(  3-C ,  9-H ) :   0.9174 
B(  3-C , 10-H ) :   0.9268 B(  3-C , 11-H ) :   0.9163 

-------
TIMINGS
-------

Total SCF time: 0 days 0 hours 0 min 50 sec 

Total time                  ....      50.952 sec
Sum of individual times     ....      46.285 sec  ( 90.8%)

Fock matrix formation       ....      36.938 sec  ( 72.5%)
  Split-RI-J                ....       5.026 sec  ( 13.6% of F)
  Chain of spheres X        ....      11.530 sec  ( 31.2% of F)
  XC integration            ....       9.860 sec  ( 26.7% of F)
    Basis function eval.    ....       1.809 sec  ( 18.3% of XC)
    Density eval.           ....       0.989 sec  ( 10.0% of XC)
    XC-Functional eval.     ....       0.972 sec  (  9.9% of XC)
    XC-Potential eval.      ....       0.557 sec  (  5.6% of XC)
Diagonalization             ....       1.148 sec  (  2.3%)
Density matrix formation    ....       0.140 sec  (  0.3%)
Population analysis         ....       0.266 sec  (  0.5%)
Initial guess               ....       0.043 sec  (  0.1%)
Orbital Transformation      ....       0.000 sec  (  0.0%)
Orbital Orthonormalization  ....       0.000 sec  (  0.0%)
DIIS solution               ....       2.201 sec  (  4.3%)
SOSCF solution              ....       0.698 sec  (  1.4%)
Grid generation             ....       4.852 sec  (  9.5%)

Maximum memory used throughout the entire SCF-calculation: 48.9 MB


-------------------------------------------------------------------------------
                          DFT DISPERSION CORRECTION                            
                                                                               
                              DFTD3 V3.1  Rev 1                                
                          USING Becke-Johnson damping                          
-------------------------------------------------------------------------------
The PBEh-3c composite method is recognized
Using three-body term ABC
Active option DFTDOPT                   ...         4   

molecular C6(AA) [au] = 926.614169 


            DFT-D V3
 parameters
 s6 scaling factor         :     1.0000 
 a1 scaling factor         :     0.4860 
 s8 scaling factor         :     0.0000 
 a2 scaling factor         :     4.5000 
 Damping factor alpha9(ATM):    16.0000 
 ad hoc parameters k1-k3   :    16.0000     1.3333    -4.0000 

 Edisp/kcal,au: -2.518604578744  -0.004013651449 
 E6   /kcal   :  -2.522007482 
 E8   /kcal   :  -0.000000000 
 E6(ABC)      :   0.003402904 
 % E8         :   0.000000000 
 % E6(ABC)    :  -0.135110679 

-------------------------   ----------------
Dispersion correction           -0.004013651
-------------------------   ----------------

------------------   -----------------
gCP correction             0.021936252
------------------   -----------------

-------------------------   --------------------
FINAL SINGLE POINT ENERGY      -190.061080679920
-------------------------   --------------------


                            ***************************************
                            *     ORCA property calculations      *
                            ***************************************

                                    ---------------------
                                    Active property flags
                                    ---------------------
   (+) Dipole Moment


------------------------------------------------------------------------------
                       ORCA ELECTRIC PROPERTIES CALCULATION
------------------------------------------------------------------------------

Dipole Moment Calculation                       ... on
Quadrupole Moment Calculation                   ... off
Polarizability Calculation                      ... off
GBWName                                         ... pbeh-3c.gbw
Electron density                                ... pbeh-3c.scfp
The origin for moment calculation is the CENTER OF MASS  = ( 0.000000,  0.000000 -0.090859)

-------------
DIPOLE MOMENT
-------------
                                X             Y             Z
Electronic contribution:     -0.00000       0.00000       0.09766
Nuclear contribution   :      0.00000      -0.00000       0.62409
                        -----------------------------------------
Total Dipole Moment    :     -0.00000       0.00000       0.72175
                        -----------------------------------------
Magnitude (a.u.)       :      0.72175
Magnitude (Debye)      :      1.83455



--------------------
Rotational spectrum 
--------------------
 
Rotational constants in cm-1:     0.925891     0.137908     0.131065 
Rotational constants in MHz : 27757.517101  4134.372236  3929.221318 

 Dipole components along the rotational axes: 
x,y,z [a.u.] :     0.000000     0.000000     0.721751 
x,y,z [Debye]:     0.000000     0.000000     1.834545 

 

Timings for individual modules:

Sum of individual times         ...       53.672 sec (=   0.895 min)
GTO integral calculation        ...        1.824 sec (=   0.030 min)   3.4 %
SCF iterations                  ...       51.848 sec (=   0.864 min)  96.6 %
                             ****ORCA TERMINATED NORMALLY****
TOTAL RUN TIME: 0 days 0 hours 0 minutes 56 seconds 552 msec
