
                                 *****************
                                 * O   R   C   A *
                                 *****************

                                            #,                                       
                                            ###                                      
                                            ####                                     
                                            #####                                    
                                            ######                                   
                                           ########,                                 
                                     ,,################,,,,,                         
                               ,,#################################,,                 
                          ,,##########################################,,             
                       ,#########################################, ''#####,          
                    ,#############################################,,   '####,        
                  ,##################################################,,,,####,       
                ,###########''''           ''''###############################       
              ,#####''   ,,,,##########,,,,          '''####'''          '####       
            ,##' ,,,,###########################,,,                        '##       
           ' ,,###''''                  '''############,,,                           
         ,,##''                                '''############,,,,        ,,,,,,###''
      ,#''                                            '''#######################'''  
     '                                                          ''''####''''         
             ,#######,   #######,   ,#######,      ##                                
            ,#'     '#,  ##    ##  ,#'     '#,    #''#        ######   ,####,        
            ##       ##  ##   ,#'  ##            #'  '#       #        #'  '#        
            ##       ##  #######   ##           ,######,      #####,   #    #        
            '#,     ,#'  ##    ##  '#,     ,#' ,#      #,         ##   #,  ,#        
             '#######'   ##     ##  '#######'  #'      '#     #####' # '####'        



                  #######################################################
                  #                        -***-                        #
                  #          Department of theory and spectroscopy      #
                  #    Directorship and core code : Frank Neese         #
                  #        Max Planck Institute fuer Kohlenforschung    #
                  #                Kaiser Wilhelm Platz 1               #
                  #                 D-45470 Muelheim/Ruhr               #
                  #                      Germany                        #
                  #                                                     #
                  #                  All rights reserved                #
                  #                        -***-                        #
                  #######################################################


                         Program Version 5.0.3 -  RELEASE  -


 With contributions from (in alphabetic order):
   Daniel Aravena         : Magnetic Suceptibility
   Michael Atanasov       : Ab Initio Ligand Field Theory (pilot matlab implementation)
   Alexander A. Auer      : GIAO ZORA, VPT2 properties, NMR spectrum
   Ute Becker             : Parallelization
   Giovanni Bistoni       : ED, misc. LED, open-shell LED, HFLD
   Martin Brehm           : Molecular dynamics
   Dmytro Bykov           : SCF Hessian
   Vijay G. Chilkuri      : MRCI spin determinant printing, contributions to CSF-ICE
   Dipayan Datta          : RHF DLPNO-CCSD density
   Achintya Kumar Dutta   : EOM-CC, STEOM-CC
   Dmitry Ganyushin       : Spin-Orbit,Spin-Spin,Magnetic field MRCI
   Miquel Garcia          : C-PCM and meta-GGA Hessian, CC/C-PCM, Gaussian charge scheme
   Yang Guo               : DLPNO-NEVPT2, F12-NEVPT2, CIM, IAO-localization
   Andreas Hansen         : Spin unrestricted coupled pair/coupled cluster methods
   Benjamin Helmich-Paris : MC-RPA, TRAH-SCF, COSX integrals
   Lee Huntington         : MR-EOM, pCC
   Robert Izsak           : Overlap fitted RIJCOSX, COSX-SCS-MP3, EOM
   Marcus Kettner         : VPT2
   Christian Kollmar      : KDIIS, OOCD, Brueckner-CCSD(T), CCSD density, CASPT2, CASPT2-K
   Simone Kossmann        : Meta GGA functionals, TD-DFT gradient, OOMP2, MP2 Hessian
   Martin Krupicka        : Initial AUTO-CI
   Lucas Lang             : DCDCAS
   Marvin Lechner         : AUTO-CI (C++ implementation), FIC-MRCC
   Dagmar Lenk            : GEPOL surface, SMD
   Dimitrios Liakos       : Extrapolation schemes; Compound Job, initial MDCI parallelization
   Dimitrios Manganas     : Further ROCIS development; embedding schemes
   Dimitrios Pantazis     : SARC Basis sets
   Anastasios Papadopoulos: AUTO-CI, single reference methods and gradients
   Taras Petrenko         : DFT Hessian,TD-DFT gradient, ASA, ECA, R-Raman, ABS, FL, XAS/XES, NRVS
   Peter Pinski           : DLPNO-MP2, DLPNO-MP2 Gradient
   Christoph Reimann      : Effective Core Potentials
   Marius Retegan         : Local ZFS, SOC
   Christoph Riplinger    : Optimizer, TS searches, QM/MM, DLPNO-CCSD(T), (RO)-DLPNO pert. Triples
   Tobias Risthaus        : Range-separated hybrids, TD-DFT gradient, RPA, STAB
   Michael Roemelt        : Original ROCIS implementation
   Masaaki Saitow         : Open-shell DLPNO-CCSD energy and density
   Barbara Sandhoefer     : DKH picture change effects
   Avijit Sen             : IP-ROCIS
   Kantharuban Sivalingam : CASSCF convergence, NEVPT2, FIC-MRCI
   Bernardo de Souza      : ESD, SOC TD-DFT
   Georgi Stoychev        : AutoAux, RI-MP2 NMR, DLPNO-MP2 response
   Willem Van den Heuvel  : Paramagnetic NMR
   Boris Wezisla          : Elementary symmetry handling
   Frank Wennmohs         : Technical directorship


 We gratefully acknowledge several colleagues who have allowed us to
 interface, adapt or use parts of their codes:
   Stefan Grimme, W. Hujo, H. Kruse, P. Pracht,  : VdW corrections, initial TS optimization,
                  C. Bannwarth, S. Ehlert          DFT functionals, gCP, sTDA/sTD-DF
   Ed Valeev, F. Pavosevic, A. Kumar             : LibInt (2-el integral package), F12 methods
   Garnet Chan, S. Sharma, J. Yang, R. Olivares  : DMRG
   Ulf Ekstrom                                   : XCFun DFT Library
   Mihaly Kallay                                 : mrcc  (arbitrary order and MRCC methods)
   Jiri Pittner, Ondrej Demel                    : Mk-CCSD
   Frank Weinhold                                : gennbo (NPA and NBO analysis)
   Christopher J. Cramer and Donald G. Truhlar   : smd solvation model
   Lars Goerigk                                  : TD-DFT with DH, B97 family of functionals
   V. Asgeirsson, H. Jonsson                     : NEB implementation
   FAccTs GmbH                                   : IRC, NEB, NEB-TS, DLPNO-Multilevel, CI-OPT
                                                   MM, QMMM, 2- and 3-layer-ONIOM, Crystal-QMMM,
                                                   LR-CPCM, SF, NACMEs, symmetry and pop. for TD-DFT,
                                                   nearIR, NL-DFT gradient (VV10), updates on ESD,
                                                   ML-optimized integration grids
   S Lehtola, MJT Oliveira, MAL Marques          : LibXC Library
   Liviu Ungur et al                             : ANISO software


 Your calculation uses the libint2 library for the computation of 2-el integrals
 For citations please refer to: http://libint.valeyev.net

 Your ORCA version has been built with support for libXC version: 5.1.0
 For citations please refer to: https://tddft.org/programs/libxc/

 This ORCA versions uses:
   CBLAS   interface :  Fast vector & matrix operations
   LAPACKE interface :  Fast linear algebra routines
   SCALAPACK package :  Parallel linear algebra routines
   Shared memory     :  Shared parallel matrices
   BLAS/LAPACK       :  OpenBLAS 0.3.15  USE64BITINT DYNAMIC_ARCH NO_AFFINITY Haswell SINGLE_THREADED
        Core in use  :  Haswell
   Copyright (c) 2011-2014, The OpenBLAS Project




***************************************
The coordinates will be read from file: methylpyridine.xyz
***************************************


Your calculation utilizes the geometrical counterpoise correction gCP
Please cite in your paper:
H.Kruse, S. Grimme J.Chem.Phys., 136, (2012), 154101 
   

Your calculation utilizes the atom-pairwise dispersion correction
with the Becke-Johnson damping scheme (D3BJ)
Cite in your paper:
S.Grimme, S.Ehrlich, L.Goerigk, J Comput Chem, (2011), 32, 1456–1465 
S.Grimme, J.Antony, S.Ehrlich and H.Krieg, J.Chem.Phys., 132, (2010), 154104 
   

Your calculation employs the composite approach PBEh-3c.
Please cite in your paper:
S. Grimme, J. G. Brandenburg, C. Bannwarth, A. Hansen J.Chem.Phys., 143, (2015), 054107 
   

================================================================================

----- Orbital basis set information -----
Your calculation utilizes the basis: def2-mSVP

----- AuxJ basis set information -----
Your calculation utilizes the auxiliary basis: def2/J
   F. Weigend, Phys. Chem. Chem. Phys. 8, 1057 (2006).

================================================================================
                                        WARNINGS
                       Please study these warnings very carefully!
================================================================================


INFO   : the flag for use of the SHARK integral package has been found!

================================================================================
                                       INPUT FILE
================================================================================
NAME = pbeh-3c.inp
|  1> ! PBEh-3c def2/J TightSCF DefGrid3
|  2> 
|  3> %maxcore 60000
|  4> 
|  5> %pal
|  6> nprocs 4
|  7> end
|  8> 
|  9> *xyzfile 0 1 methylpyridine.xyz
| 10> 
| 11>                          ****END OF INPUT****
================================================================================

                       ****************************
                       * Single Point Calculation *
                       ****************************

---------------------------------
CARTESIAN COORDINATES (ANGSTROEM)
---------------------------------
  C      0.509280   -1.135569   -1.326002
  C      1.125719   -1.689169   -0.201728
  C      0.942743   -1.051383    1.024737
  C      0.158877    0.100906    1.072016
  C     -0.421450    0.588188   -0.109337
  N     -0.243937   -0.027496   -1.295913
  H      1.405103   -1.442990    1.932227
  H      0.626406   -1.604839   -2.307700
  H      1.730644   -2.591764   -0.289832
  H     -0.002448    0.625223    2.015490
  C     -1.284398    1.822117   -0.117150
  H     -1.208829    2.378925    0.825605
  H     -0.998151    2.478981   -0.949569
  H     -2.339558    1.548871   -0.272844

----------------------------
CARTESIAN COORDINATES (A.U.)
----------------------------
  NO LB      ZA    FRAG     MASS         X           Y           Z
   0 C     6.0000    0    12.011    0.962399   -2.145915   -2.505781
   1 C     6.0000    0    12.011    2.127301   -3.192068   -0.381210
   2 C     6.0000    0    12.011    1.781526   -1.986826    1.936473
   3 C     6.0000    0    12.011    0.300234    0.190686    2.025816
   4 C     6.0000    0    12.011   -0.796426    1.111514   -0.206616
   5 N     7.0000    0    14.007   -0.460975   -0.051960   -2.448921
   6 H     1.0000    0     1.008    2.655260   -2.726856    3.651380
   7 H     1.0000    0     1.008    1.183735   -3.032707   -4.360922
   8 H     1.0000    0     1.008    3.270443   -4.897724   -0.547703
   9 H     1.0000    0     1.008   -0.004625    1.181499    3.808725
  10 C     6.0000    0    12.011   -2.427161    3.443302   -0.221382
  11 H     1.0000    0     1.008   -2.284356    4.495516    1.560167
  12 H     1.0000    0     1.008   -1.886232    4.684595   -1.794426
  13 H     1.0000    0     1.008   -4.421124    2.926943   -0.515599

--------------------------------
INTERNAL COORDINATES (ANGSTROEM)
--------------------------------
 C      0   0   0     0.000000000000     0.00000000     0.00000000
 C      1   0   0     1.396589917852     0.00000000     0.00000000
 C      2   1   0     1.394442203616   117.95777559     0.00000000
 C      3   2   1     1.394435999101   118.78578635     0.00000000
 C      4   3   2     1.403501243567   119.39300163   359.91391080
 N      1   2   3     1.340174571042   123.89985214     0.16199400
 H      3   2   1     1.091178512301   120.77920289   180.14109183
 H      1   2   3     1.094378211620   120.32562881   180.04562995
 H      2   1   3     1.090125193484   120.53567640   180.07536790
 H      4   3   2     1.091365147975   120.62394629   180.13068457
 C      5   4   3     1.505762821170   121.72528987   179.58453544
 H     11   5   4     1.097512148508   111.82847351    12.49776123
 H     11   5   4     1.098330341431   110.16117765   134.19111309
 H     11   5   4     1.101028964449   110.27856965   251.97594686

---------------------------
INTERNAL COORDINATES (A.U.)
---------------------------
 C      0   0   0     0.000000000000     0.00000000     0.00000000
 C      1   0   0     2.639172466137     0.00000000     0.00000000
 C      2   1   0     2.635113874415   117.95777559     0.00000000
 C      3   2   1     2.635102149583   118.78578635     0.00000000
 C      4   3   2     2.652232978960   119.39300163   359.91391080
 N      1   2   3     2.532562910916   123.89985214     0.16199400
 H      3   2   1     2.062028551468   120.77920289   180.14109183
 H      1   2   3     2.068075106893   120.32562881   180.04562995
 H      2   1   3     2.060038067373   120.53567640   180.07536790
 H      4   3   2     2.062381241779   120.62394629   180.13068457
 C      5   4   3     2.845479354652   121.72528987   179.58453544
 H     11   5   4     2.073997389332   111.82847351    12.49776123
 H     11   5   4     2.075543549881   110.16117765   134.19111309
 H     11   5   4     2.080643208324   110.27856965   251.97594686

---------------------
BASIS SET INFORMATION
---------------------
There are 3 groups of distinct atoms

 Group   1 Type C   : 8s4p1d contracted to 4s2p1d pattern {5111/31/1}
 Group   2 Type N   : 8s4p1d contracted to 4s2p1d pattern {5111/31/1}
 Group   3 Type H   : 4s contracted to 2s pattern {31}

Atom   0C    basis set group =>   1
Atom   1C    basis set group =>   1
Atom   2C    basis set group =>   1
Atom   3C    basis set group =>   1
Atom   4C    basis set group =>   1
Atom   5N    basis set group =>   2
Atom   6H    basis set group =>   3
Atom   7H    basis set group =>   3
Atom   8H    basis set group =>   3
Atom   9H    basis set group =>   3
Atom  10C    basis set group =>   1
Atom  11H    basis set group =>   3
Atom  12H    basis set group =>   3
Atom  13H    basis set group =>   3
---------------------------------
AUXILIARY/J BASIS SET INFORMATION
---------------------------------
There are 3 groups of distinct atoms

 Group   1 Type C   : 12s5p4d2f1g contracted to 6s4p3d1f1g pattern {711111/2111/211/2/1}
 Group   2 Type N   : 12s5p4d2f1g contracted to 6s4p3d1f1g pattern {711111/2111/211/2/1}
 Group   3 Type H   : 5s2p1d contracted to 3s1p1d pattern {311/2/1}

Atom   0C    basis set group =>   1
Atom   1C    basis set group =>   1
Atom   2C    basis set group =>   1
Atom   3C    basis set group =>   1
Atom   4C    basis set group =>   1
Atom   5N    basis set group =>   2
Atom   6H    basis set group =>   3
Atom   7H    basis set group =>   3
Atom   8H    basis set group =>   3
Atom   9H    basis set group =>   3
Atom  10C    basis set group =>   1
Atom  11H    basis set group =>   3
Atom  12H    basis set group =>   3
Atom  13H    basis set group =>   3


           ************************************************************
           *        Program running with 4 parallel MPI-processes     *
           *              working on a common directory               *
           ************************************************************
------------------------------------------------------------------------------
                           ORCA GTO INTEGRAL CALCULATION
                           -- RI-GTO INTEGRALS CHOSEN --
------------------------------------------------------------------------------
------------------------------------------------------------------------------
                   ___                                                        
                  /   \      - P O W E R E D   B Y -                         
                 /     \                                                     
                 |  |  |   _    _      __       _____    __    __             
                 |  |  |  | |  | |    /  \     |  _  \  |  |  /  |          
                  \  \/   | |  | |   /    \    | | | |  |  | /  /          
                 / \  \   | |__| |  /  /\  \   | |_| |  |  |/  /          
                |  |  |   |  __  | /  /__\  \  |    /   |      \           
                |  |  |   | |  | | |   __   |  |    \   |  |\   \          
                \     /   | |  | | |  |  |  |  | |\  \  |  | \   \       
                 \___/    |_|  |_| |__|  |__|  |_| \__\ |__|  \__/        
                                                                              
                      - O R C A' S   B I G   F R I E N D -                    
                                      &                                       
                       - I N T E G R A L  F E E D E R -                       
                                                                              
 v1 FN, 2020, v2 2021                                                         
------------------------------------------------------------------------------


Reading SHARK input file pbeh-3c.SHARKINP.tmp ... ok
----------------------
SHARK INTEGRAL PACKAGE
----------------------

Number of atoms                             ...     14
Number of basis functions                   ...    119
Number of shells                            ...     63
Maximum angular momentum                    ...      2
Integral batch strategy                     ... SHARK/LIBINT Hybrid
RI-J (if used) integral strategy            ... SPLIT-RIJ (Revised 2003 algorithm where possible)
Printlevel                                  ...      1
Contraction scheme used                     ... SEGMENTED contraction
Coulomb Range Separation                    ... NOT USED
Exchange Range Separation                   ... NOT USED
Finite Nucleus Model                        ... NOT USED
Auxiliary Coulomb fitting basis             ... AVAILABLE
   # of basis functions in Aux-J            ...    420
   # of shells in Aux-J                     ...    140
   Maximum angular momentum in Aux-J        ...      4
Auxiliary J/K fitting basis                 ... NOT available
Auxiliary Correlation fitting basis         ... NOT available
Auxiliary 'external' fitting basis          ... NOT available
Integral threshold                          ...     2.500000e-11
Primitive cut-off                           ...     2.500000e-12
Primitive pair pre-selection threshold      ...     2.500000e-12

Calculating pre-screening integrals         ... done (  0.0 sec) Dimension = 63
Organizing shell pair data                  ... done (  0.2 sec)
Shell pair information
Total number of shell pairs                 ...      2016
Shell pairs after pre-screening             ...      1887
Total number of primitive shell pairs       ...      7252
Primitive shell pairs kept                  ...      4973
          la=0 lb=0:    792 shell pairs
          la=1 lb=0:    583 shell pairs
          la=1 lb=1:    105 shell pairs
          la=2 lb=0:    281 shell pairs
          la=2 lb=1:     98 shell pairs
          la=2 lb=2:     28 shell pairs

Calculating one electron integrals          ... done (  0.0 sec)
Calculating RI/J V-Matrix + Cholesky decomp.... done (  0.8 sec)
Calculating Nuclear repulsion               ... done (  0.0 sec) ENN=    271.870649655106 Eh

SHARK setup successfully completed in   2.6 seconds

Maximum memory used throughout the entire GTOINT-calculation: 10.6 MB


           ************************************************************
           *        Program running with 4 parallel MPI-processes     *
           *              working on a common directory               *
           ************************************************************
-------------------------------------------------------------------------------
                                 ORCA SCF
-------------------------------------------------------------------------------

------------
SCF SETTINGS
------------
Hamiltonian:
 Density Functional     Method          .... DFT(GTOs)
 Exchange Functional    Exchange        .... PBE
   PBE kappa parameter   XKappa         ....  1.024500
   PBE mue parameter    XMuePBE         ....  0.123457
 Correlation Functional Correlation     .... PBE
   PBE beta parameter  CBetaPBE         ....  0.030000
 LDA part of GGA corr.  LDAOpt          .... PW91-LDA
 Gradients option       PostSCFGGA      .... off
 Hybrid DFT is turned on
   Fraction HF Exchange ScalHFX         ....  0.420000
   Scaling of DF-GGA-X  ScalDFX         ....  0.580000
   Scaling of DF-GGA-C  ScalDFC         ....  1.000000
   Scaling of DF-LDA-C  ScalLDAC        ....  1.000000
   Perturbative correction              ....  0.000000
   Density functional embedding theory  .... OFF
 RI-approximation to the Coulomb term is turned on
   Number of AuxJ basis functions       .... 420
   RIJ-ON(X) (HFX calculated with O(N)) .... on
   Number of AuxJ basis functions       .... 420
   RIJ-COSX (HFX calculated with COS-X)).... on


General Settings:
 Integral files         IntName         .... pbeh-3c
 Hartree-Fock type      HFTyp           .... RHF
 Total Charge           Charge          ....    0
 Multiplicity           Mult            ....    1
 Number of Electrons    NEL             ....   50
 Basis Dimension        Dim             ....  119
 Nuclear Repulsion      ENuc            ....    271.8706496551 Eh

Convergence Acceleration:
 DIIS                   CNVDIIS         .... on
   Start iteration      DIISMaxIt       ....    12
   Startup error        DIISStart       ....  0.200000
   # of expansion vecs  DIISMaxEq       ....     5
   Bias factor          DIISBfac        ....   1.050
   Max. coefficient     DIISMaxC        ....  10.000
 Trust-Rad. Augm. Hess. CNVTRAH         .... auto
   Auto Start mean grad. ratio tolernc. ....  1.125000
   Auto Start start iteration           ....    20
   Auto Start num. interpolation iter.  ....    10
   Max. Number of Micro iterations      ....    16
   Max. Number of Macro iterations      .... Maxiter - #DIIS iter
   Number of Davidson start vectors     ....     2
   Converg. threshold I  (grad. norm)   ....   1.000e-05
   Converg. threshold II (energy diff.) ....   1.000e-08
   Grad. Scal. Fac. for Micro threshold ....   0.100
   Minimum threshold for Micro iter.    ....   0.010
   NR start threshold (gradient norm)   ....   0.001
   Initial trust radius                 ....   0.400
   Minimum AH scaling param. (alpha)    ....   1.000
   Maximum AH scaling param. (alpha)    .... 1000.000
   Orbital update algorithm             .... Taylor
   White noise on init. David. guess    .... on
   Maximum white noise                  ....   0.010
   Quad. conv. algorithm                .... NR
   COSX micro iterations for RIJONX calc.... off
 SOSCF                  CNVSOSCF        .... on
   Start iteration      SOSCFMaxIt      ....   150
   Startup grad/error   SOSCFStart      ....  0.003300
 Level Shifting         CNVShift        .... on
   Level shift para.    LevelShift      ....    0.2500
   Turn off err/grad.   ShiftErr        ....    0.0010
 Zerner damping         CNVZerner       .... off
 Static damping         CNVDamp         .... on
   Fraction old density DampFac         ....    0.7000
   Max. Damping (<1)    DampMax         ....    0.9800
   Min. Damping (>=0)   DampMin         ....    0.0000
   Turn off err/grad.   DampErr         ....    0.1000
 Fernandez-Rico         CNVRico         .... off

SCF Procedure:
 Maximum # iterations   MaxIter         ....   125
 SCF integral mode      SCFMode         .... Direct
   Integral package                     .... SHARK and LIBINT hybrid scheme
 Reset frequency        DirectResetFreq ....    20
 Integral Threshold     Thresh          ....  2.500e-11 Eh
 Primitive CutOff       TCut            ....  2.500e-12 Eh

Convergence Tolerance:
 Convergence Check Mode ConvCheckMode   .... Total+1el-Energy
 Convergence forced     ConvForced      .... 0
 Energy Change          TolE            ....  1.000e-08 Eh
 1-El. energy change                    ....  1.000e-05 Eh
 Orbital Gradient       TolG            ....  1.000e-05
 Orbital Rotation angle TolX            ....  1.000e-05
 DIIS Error             TolErr          ....  5.000e-07


Diagonalization of the overlap matrix:
Smallest eigenvalue                        ... 9.819e-04
Time for diagonalization                   ...    0.003 sec
Threshold for overlap eigenvalues          ... 1.000e-08
Number of eigenvalues below threshold      ... 0
Time for construction of square roots      ...    0.270 sec
Total time needed                          ...    0.273 sec

--------------------------------
INITIAL GUESS: MINIMAL BASIS EHT
--------------------------------
The minimal basis has 42 functions
EHT matrix was diagonalized
Basis set overlap was calculated now projecting the orbitals
Using GuessMode=FMatrix for the initial guess
C*T matrix was formed
Effective Fockian was calculated
Effective Fockian was diagonalized
Initial density was built
                      ------------------
                      INITIAL GUESS DONE
                      ------------------
-------------------
DFT GRID GENERATION
-------------------

General Integration Accuracy     IntAcc      ... 4.959
Radial Grid Type                 RadialGrid  ... OptM3 with GC (2021)
Angular Grid (max. ang.)         AngularGrid ... 6 (Lebedev-590)
Angular grid pruning method      GridPruning ... 4 (adaptive)
Weight generation scheme         WeightScheme... Becke
Basis function cutoff            BFCut       ... 1.0000e-11
Integration weight cutoff        WCut        ... 1.0000e-14
Angular grids for H and He will be reduced by one unit
Partially contracted basis set               ... off
Rotationally invariant grid construction     ... off

Total number of grid points                  ...   161856
Total number of batches                      ...     2535
Average number of points per batch           ...       63
Average number of grid points per atom       ...    11561
Time for grid setup =    3.671 sec

--------------------
COSX GRID GENERATION
--------------------

GRIDX 1
-------
General Integration Accuracy     IntAcc      ... 4.020
Radial Grid Type                 RadialGrid  ... OptM3 with GC (2021)
Angular Grid (max. ang.)         AngularGrid ... 2 (Lebedev-110)
Angular grid pruning method      GridPruning ... 4 (adaptive)
Weight generation scheme         WeightScheme... Becke
Basis function cutoff            BFCut       ... 1.0000e-11
Integration weight cutoff        WCut        ... 1.0000e-14
Angular grids for H and He will be reduced by one unit
Partially contracted basis set               ... on
Rotationally invariant grid construction     ... off

Total number of grid points                  ...    18057
Total number of batches                      ...      290
Average number of points per batch           ...       62
Average number of grid points per atom       ...     1290
UseSFitting                                  ... on

GRIDX 2
-------
General Integration Accuracy     IntAcc      ... 4.338
Radial Grid Type                 RadialGrid  ... OptM3 with GC (2021)
Angular Grid (max. ang.)         AngularGrid ... 3 (Lebedev-194)
Angular grid pruning method      GridPruning ... 4 (adaptive)
Weight generation scheme         WeightScheme... Becke
Basis function cutoff            BFCut       ... 1.0000e-11
Integration weight cutoff        WCut        ... 1.0000e-14
Angular grids for H and He will be reduced by one unit
Partially contracted basis set               ... on
Rotationally invariant grid construction     ... off

Total number of grid points                  ...    39714
Total number of batches                      ...      628
Average number of points per batch           ...       63
Average number of grid points per atom       ...     2837
UseSFitting                                  ... on

GRIDX 3
-------
General Integration Accuracy     IntAcc      ... 4.871
Radial Grid Type                 RadialGrid  ... OptM3 with GC (2021)
Angular Grid (max. ang.)         AngularGrid ... 4 (Lebedev-302)
Angular grid pruning method      GridPruning ... 4 (adaptive)
Weight generation scheme         WeightScheme... Becke
Basis function cutoff            BFCut       ... 1.0000e-11
Integration weight cutoff        WCut        ... 1.0000e-14
Angular grids for H and He will be reduced by one unit
Partially contracted basis set               ... on
Rotationally invariant grid construction     ... off

Total number of grid points                  ...    76009
Total number of batches                      ...     1196
Average number of points per batch           ...       63
Average number of grid points per atom       ...     5429
UseSFitting                                  ... on

Time for X-Grid setup             =    4.916 sec

--------------
SCF ITERATIONS
--------------
ITER       Energy         Delta-E        Max-DP      RMS-DP      [F,P]     Damp
               ***  Starting incremental Fock matrix formation  ***
  0   -286.1486926113   0.000000000000 0.16287358  0.00569267  0.4062978 0.7000
  1   -286.4241354494  -0.275442838111 0.09460595  0.00369785  0.2866920 0.7000
  2   -286.5883830325  -0.164247583150 0.04907998  0.00238597  0.2008743 0.7000
                               ***Turning on DIIS***
  3   -286.7012815821  -0.112898549625 0.03102079  0.00169265  0.1415256 0.7000
  4   -286.7821254723  -0.080843890192 0.08923878  0.00442889  0.0994690 0.0000
  5   -286.9758737540  -0.193748281627 0.01388634  0.00039324  0.0114691 0.0000
  6   -286.9761952172  -0.000321463283 0.00463457  0.00015707  0.0077069 0.0000
                      *** Initiating the SOSCF procedure ***
                           *** Shutting down DIIS ***
                      *** Re-Reading the Fockian *** 
                      *** Removing any level shift *** 
ITER      Energy       Delta-E        Grad      Rot      Max-DP    RMS-DP
  7   -286.97636532  -0.0001701043  0.000414  0.000414  0.003166  0.000088
               *** Restarting incremental Fock matrix formation ***
  8   -286.97637551  -0.0000101874  0.000165  0.000538  0.000432  0.000019
  9   -286.97637554  -0.0000000353  0.000235  0.000361  0.000257  0.000009
 10   -286.97637612  -0.0000005769  0.000032  0.000100  0.000073  0.000002
 11   -286.97637612   0.0000000023  0.000033  0.000038  0.000032  0.000001
                  ***Gradient check signals convergence***
              ***Rediagonalizing the Fockian in SOSCF/NRSCF***

               *****************************************************
               *                     SUCCESS                       *
               *           SCF CONVERGED AFTER  12 CYCLES          *
               *****************************************************

Old exchange energy                            =    -16.850383101 Eh
New exchange energy                            =    -16.850380212 Eh
Exchange energy change after final integration =      0.000002889 Eh
Total energy after final integration           =   -286.976373241 Eh
Final COS-X integration done in                =     3.617 sec

----------------
TOTAL SCF ENERGY
----------------

Total Energy       :         -286.97637324 Eh           -7809.02412 eV

Components:
Nuclear Repulsion  :          271.87064966 Eh            7397.97648 eV
Electronic Energy  :         -558.84702290 Eh          -15207.00060 eV
One Electron Energy:         -924.96932466 Eh          -25169.69493 eV
Two Electron Energy:          366.12230176 Eh            9962.69432 eV
Max COSX asymmetry :            0.00000177 Eh               0.00005 eV

Virial components:
Potential Energy   :         -571.47072660 Eh          -15550.50904 eV
Kinetic Energy     :          284.49435336 Eh            7741.48492 eV
Virial Ratio       :            2.00872432


DFT components:
N(Alpha)           :       25.000001649626 electrons
N(Beta)            :       25.000001649626 electrons
N(Total)           :       50.000003299253 electrons
E(X)               :      -22.383157892551 Eh       
E(C)               :       -2.157443772987 Eh       
E(XC)              :      -24.540601665538 Eh       
DFET-embed. en.    :        0.000000000000 Eh       

---------------
SCF CONVERGENCE
---------------

  Last Energy change         ...   -1.1119e-08  Tolerance :   1.0000e-08
  Last MAX-Density change    ...    1.5543e-15  Tolerance :   1.0000e-07
  Last RMS-Density change    ...    4.4080e-17  Tolerance :   5.0000e-09
  Last Orbital Gradient      ...    2.0994e-06  Tolerance :   1.0000e-05
  Last Orbital Rotation      ...    5.6471e-06  Tolerance :   1.0000e-05

             **** THE GBW FILE WAS UPDATED (pbeh-3c.gbw) ****
             **** DENSITY pbeh-3c.scfp WAS UPDATED ****
             **** ENERGY FILE WAS UPDATED (pbeh-3c.en.tmp) ****
             **** THE GBW FILE WAS UPDATED (pbeh-3c.gbw) ****
             **** DENSITY pbeh-3c.scfp WAS UPDATED ****
----------------
ORBITAL ENERGIES
----------------

  NO   OCC          E(Eh)            E(eV) 
   0   2.0000     -14.634119      -398.2146 
   1   2.0000     -10.492029      -285.5026 
   2   2.0000     -10.481866      -285.2261 
   3   2.0000     -10.468730      -284.8686 
   4   2.0000     -10.455509      -284.5089 
   5   2.0000     -10.455286      -284.5028 
   6   2.0000     -10.435189      -283.9559 
   7   2.0000      -1.042029       -28.3551 
   8   2.0000      -0.895344       -24.3636 
   9   2.0000      -0.871541       -23.7158 
  10   2.0000      -0.783292       -21.3145 
  11   2.0000      -0.706217       -19.2171 
  12   2.0000      -0.677834       -18.4448 
  13   2.0000      -0.580374       -15.7928 
  14   2.0000      -0.551061       -14.9951 
  15   2.0000      -0.522768       -14.2252 
  16   2.0000      -0.485465       -13.2102 
  17   2.0000      -0.478145       -13.0110 
  18   2.0000      -0.464645       -12.6436 
  19   2.0000      -0.436342       -11.8735 
  20   2.0000      -0.428643       -11.6640 
  21   2.0000      -0.413661       -11.2563 
  22   2.0000      -0.327458        -8.9106 
  23   2.0000      -0.308763        -8.4019 
  24   2.0000      -0.293212        -7.9787 
  25   0.0000      -0.002259        -0.0615 
  26   0.0000       0.013792         0.3753 
  27   0.0000       0.142038         3.8650 
  28   0.0000       0.173717         4.7271 
  29   0.0000       0.175626         4.7790 
  30   0.0000       0.190388         5.1807 
  31   0.0000       0.213591         5.8121 
  32   0.0000       0.218348         5.9416 
  33   0.0000       0.230807         6.2806 
  34   0.0000       0.241363         6.5678 
  35   0.0000       0.251485         6.8432 
  36   0.0000       0.281332         7.6554 
  37   0.0000       0.320278         8.7152 
  38   0.0000       0.349394         9.5075 
  39   0.0000       0.362345         9.8599 
  40   0.0000       0.463424        12.6104 
  41   0.0000       0.496829        13.5194 
  42   0.0000       0.504904        13.7391 
  43   0.0000       0.515454        14.0262 
  44   0.0000       0.527564        14.3558 
  45   0.0000       0.553568        15.0633 
  46   0.0000       0.585877        15.9425 
  47   0.0000       0.591268        16.0892 
  48   0.0000       0.612634        16.6706 
  49   0.0000       0.619937        16.8694 
  50   0.0000       0.630023        17.1438 
  51   0.0000       0.640578        17.4310 
  52   0.0000       0.678630        18.4665 
  53   0.0000       0.691930        18.8284 
  54   0.0000       0.699554        19.0358 
  55   0.0000       0.710529        19.3345 
  56   0.0000       0.773396        21.0452 
  57   0.0000       0.853321        23.2201 
  58   0.0000       0.927529        25.2393 
  59   0.0000       0.940773        25.5997 
  60   0.0000       0.967997        26.3405 
  61   0.0000       0.979848        26.6630 
  62   0.0000       0.996727        27.1223 
  63   0.0000       1.000649        27.2290 
  64   0.0000       1.015304        27.6278 
  65   0.0000       1.021233        27.7892 
  66   0.0000       1.049925        28.5699 
  67   0.0000       1.064195        28.9582 
  68   0.0000       1.068804        29.0836 
  69   0.0000       1.078213        29.3397 
  70   0.0000       1.106723        30.1155 
  71   0.0000       1.174320        31.9549 
  72   0.0000       1.207579        32.8599 
  73   0.0000       1.299058        35.3492 
  74   0.0000       1.322724        35.9931 
  75   0.0000       1.392752        37.8987 
  76   0.0000       1.414797        38.4986 
  77   0.0000       1.450588        39.4725 
  78   0.0000       1.499299        40.7980 
  79   0.0000       1.530875        41.6572 
  80   0.0000       1.547028        42.0968 
  81   0.0000       1.576474        42.8980 
  82   0.0000       1.732232        47.1364 
  83   0.0000       1.806826        49.1662 
  84   0.0000       1.848697        50.3056 
  85   0.0000       1.895450        51.5778 
  86   0.0000       1.914655        52.1004 
  87   0.0000       1.951989        53.1163 
  88   0.0000       1.956068        53.2273 
  89   0.0000       1.979651        53.8690 
  90   0.0000       2.110594        57.4322 
  91   0.0000       2.176169        59.2166 
  92   0.0000       2.199909        59.8626 
  93   0.0000       2.221183        60.4415 
  94   0.0000       2.228087        60.6293 
  95   0.0000       2.265833        61.6565 
  96   0.0000       2.315426        63.0060 
  97   0.0000       2.336647        63.5834 
  98   0.0000       2.358238        64.1709 
  99   0.0000       2.390589        65.0512 
 100   0.0000       2.401183        65.3395 
 101   0.0000       2.516456        68.4762 
 102   0.0000       2.583304        70.2953 
 103   0.0000       2.616850        71.2081 
 104   0.0000       2.713182        73.8294 
 105   0.0000       2.763256        75.1920 
 106   0.0000       2.768861        75.3445 
 107   0.0000       2.828003        76.9539 
 108   0.0000       2.868860        78.0657 
 109   0.0000       2.889118        78.6169 
 110   0.0000       3.139024        85.4172 
 111   0.0000       3.468949        94.3949 
 112   0.0000      13.331872       362.7787 
 113   0.0000      13.601030       370.1028 
 114   0.0000      13.777060       374.8929 
 115   0.0000      13.968900       380.1131 
 116   0.0000      14.142205       384.8290 
 117   0.0000      14.337472       390.1424 
 118   0.0000      19.467186       529.7291 

                    ********************************
                    * MULLIKEN POPULATION ANALYSIS *
                    ********************************

-----------------------
MULLIKEN ATOMIC CHARGES
-----------------------
   0 C :   -0.048042
   1 C :   -0.302117
   2 C :   -0.127321
   3 C :   -0.312208
   4 C :    0.247967
   5 N :   -0.386051
   6 H :    0.230651
   7 H :    0.228593
   8 H :    0.228118
   9 H :    0.223951
  10 C :   -0.687365
  11 H :    0.216285
  12 H :    0.246342
  13 H :    0.241199
Sum of atomic charges:    0.0000000

--------------------------------
MULLIKEN REDUCED ORBITAL CHARGES
--------------------------------
  0 C s       :     3.167878  s :     3.167878
      pz      :     1.003913  p :     2.820822
      px      :     0.912535
      py      :     0.904373
      dz2     :     0.013072  d :     0.059343
      dxz     :     0.008654
      dyz     :     0.017607
      dx2y2   :     0.009977
      dxy     :     0.010033
  1 C s       :     3.269215  s :     3.269215
      pz      :     0.880611  p :     2.995087
      px      :     1.042595
      py      :     1.071880
      dz2     :     0.010859  d :     0.037815
      dxz     :     0.007528
      dyz     :     0.009358
      dx2y2   :     0.003408
      dxy     :     0.006663
  2 C s       :     3.228921  s :     3.228921
      pz      :     0.984062  p :     2.858082
      px      :     0.945798
      py      :     0.928222
      dz2     :     0.009859  d :     0.040318
      dxz     :     0.008269
      dyz     :     0.010329
      dx2y2   :     0.005950
      dxy     :     0.005912
  3 C s       :     3.270243  s :     3.270243
      pz      :     1.046273  p :     3.004459
      px      :     0.981453
      py      :     0.976734
      dz2     :     0.009550  d :     0.037506
      dxz     :     0.006043
      dyz     :     0.010962
      dx2y2   :     0.005402
      dxy     :     0.005549
  4 C s       :     3.089616  s :     3.089616
      pz      :     0.842427  p :     2.597612
      px      :     0.895634
      py      :     0.859552
      dz2     :     0.019478  d :     0.064805
      dxz     :     0.012606
      dyz     :     0.017324
      dx2y2   :     0.007629
      dxy     :     0.007768
  5 N s       :     3.623498  s :     3.623498
      pz      :     1.407591  p :     3.721384
      px      :     1.190219
      py      :     1.123574
      dz2     :     0.011814  d :     0.041169
      dxz     :     0.006453
      dyz     :     0.008519
      dx2y2   :     0.006728
      dxy     :     0.007655
  6 H s       :     0.769349  s :     0.769349
  7 H s       :     0.771407  s :     0.771407
  8 H s       :     0.771882  s :     0.771882
  9 H s       :     0.776049  s :     0.776049
 10 C s       :     3.406537  s :     3.406537
      pz      :     1.143159  p :     3.245556
      px      :     1.088566
      py      :     1.013830
      dz2     :     0.007702  d :     0.035272
      dxz     :     0.001903
      dyz     :     0.010465
      dx2y2   :     0.008199
      dxy     :     0.007003
 11 H s       :     0.783715  s :     0.783715
 12 H s       :     0.753658  s :     0.753658
 13 H s       :     0.758801  s :     0.758801


                     *******************************
                     * LOEWDIN POPULATION ANALYSIS *
                     *******************************

----------------------
LOEWDIN ATOMIC CHARGES
----------------------
   0 C :   -0.052675
   1 C :   -0.174437
   2 C :   -0.101059
   3 C :   -0.165980
   4 C :    0.019172
   5 N :   -0.147893
   6 H :    0.140234
   7 H :    0.129151
   8 H :    0.141365
   9 H :    0.139541
  10 C :   -0.353724
  11 H :    0.130223
  12 H :    0.148817
  13 H :    0.147266

-------------------------------
LOEWDIN REDUCED ORBITAL CHARGES
-------------------------------
  0 C s       :     2.890781  s :     2.890781
      pz      :     1.075874  p :     3.030638
      px      :     0.961265
      py      :     0.993499
      dz2     :     0.027153  d :     0.131257
      dxz     :     0.020612
      dyz     :     0.040538
      dx2y2   :     0.019729
      dxy     :     0.023225
  1 C s       :     2.905354  s :     2.905354
      pz      :     1.088418  p :     3.182528
      px      :     1.035446
      py      :     1.058664
      dz2     :     0.028066  d :     0.086555
      dxz     :     0.017978
      dyz     :     0.023668
      dx2y2   :     0.005495
      dxy     :     0.011348
  2 C s       :     2.900109  s :     2.900109
      pz      :     1.082330  p :     3.110536
      px      :     0.985723
      py      :     1.042483
      dz2     :     0.022906  d :     0.090414
      dxz     :     0.016911
      dyz     :     0.024702
      dx2y2   :     0.012477
      dxy     :     0.013418
  3 C s       :     2.902334  s :     2.902334
      pz      :     1.077190  p :     3.177697
      px      :     1.038781
      py      :     1.061727
      dz2     :     0.022415  d :     0.085948
      dxz     :     0.014195
      dyz     :     0.025040
      dx2y2   :     0.011120
      dxy     :     0.013179
  4 C s       :     2.848844  s :     2.848844
      pz      :     1.041243  p :     2.982786
      px      :     0.950621
      py      :     0.990921
      dz2     :     0.050006  d :     0.149198
      dxz     :     0.028078
      dyz     :     0.039432
      dx2y2   :     0.014935
      dxy     :     0.016747
  5 N s       :     3.212204  s :     3.212204
      pz      :     1.448873  p :     3.847273
      px      :     1.204884
      py      :     1.193516
      dz2     :     0.024667  d :     0.088416
      dxz     :     0.012072
      dyz     :     0.020693
      dx2y2   :     0.013633
      dxy     :     0.017350
  6 H s       :     0.859766  s :     0.859766
  7 H s       :     0.870849  s :     0.870849
  8 H s       :     0.858635  s :     0.858635
  9 H s       :     0.860459  s :     0.860459
 10 C s       :     2.953291  s :     2.953291
      pz      :     1.131161  p :     3.334602
      px      :     1.117621
      py      :     1.085821
      dz2     :     0.013697  d :     0.065831
      dxz     :     0.003024
      dyz     :     0.019003
      dx2y2   :     0.015689
      dxy     :     0.014417
 11 H s       :     0.869777  s :     0.869777
 12 H s       :     0.851183  s :     0.851183
 13 H s       :     0.852734  s :     0.852734


                      *****************************
                      * MAYER POPULATION ANALYSIS *
                      *****************************

  NA   - Mulliken gross atomic population
  ZA   - Total nuclear charge
  QA   - Mulliken gross atomic charge
  VA   - Mayer's total valence
  BVA  - Mayer's bonded valence
  FA   - Mayer's free valence

  ATOM       NA         ZA         QA         VA         BVA        FA
  0 C      6.0480     6.0000    -0.0480     3.8726     3.8726    -0.0000
  1 C      6.3021     6.0000    -0.3021     3.7916     3.7916    -0.0000
  2 C      6.1273     6.0000    -0.1273     3.7658     3.7658     0.0000
  3 C      6.3122     6.0000    -0.3122     3.8050     3.8050     0.0000
  4 C      5.7520     6.0000     0.2480     3.7906     3.7906     0.0000
  5 N      7.3861     7.0000    -0.3861     3.0947     3.0947     0.0000
  6 H      0.7693     1.0000     0.2307     0.9080     0.9080     0.0000
  7 H      0.7714     1.0000     0.2286     0.9052     0.9052    -0.0000
  8 H      0.7719     1.0000     0.2281     0.9151     0.9151    -0.0000
  9 H      0.7760     1.0000     0.2240     0.9179     0.9179     0.0000
 10 C      6.6874     6.0000    -0.6874     3.7040     3.7040     0.0000
 11 H      0.7837     1.0000     0.2163     0.9157     0.9157    -0.0000
 12 H      0.7537     1.0000     0.2463     0.9057     0.9057    -0.0000
 13 H      0.7588     1.0000     0.2412     0.9030     0.9030    -0.0000

  Mayer bond orders larger than 0.100000
B(  0-C ,  1-C ) :   1.3776 B(  0-C ,  5-N ) :   1.5205 B(  0-C ,  7-H ) :   0.9172 
B(  1-C ,  2-C ) :   1.4114 B(  1-C ,  8-H ) :   0.9137 B(  2-C ,  3-C ) :   1.4263 
B(  2-C ,  6-H ) :   0.9184 B(  3-C ,  4-C ) :   1.3625 B(  3-C ,  9-H ) :   0.9145 
B(  4-C ,  5-N ) :   1.4511 B(  4-C , 10-C ) :   0.9729 B( 10-C , 11-H ) :   0.9300 
B( 10-C , 12-H ) :   0.9157 B( 10-C , 13-H ) :   0.9119 

-------
TIMINGS
-------

Total SCF time: 0 days 0 hours 1 min 34 sec 

Total time                  ....      94.299 sec
Sum of individual times     ....      85.778 sec  ( 91.0%)

Fock matrix formation       ....      70.288 sec  ( 74.5%)
  Split-RI-J                ....       8.785 sec  ( 12.5% of F)
  Chain of spheres X        ....      24.593 sec  ( 35.0% of F)
  XC integration            ....      20.141 sec  ( 28.7% of F)
    Basis function eval.    ....       2.930 sec  ( 14.5% of XC)
    Density eval.           ....       2.077 sec  ( 10.3% of XC)
    XC-Functional eval.     ....       1.305 sec  (  6.5% of XC)
    XC-Potential eval.      ....       1.146 sec  (  5.7% of XC)
Diagonalization             ....       2.342 sec  (  2.5%)
Density matrix formation    ....       0.392 sec  (  0.4%)
Population analysis         ....       0.485 sec  (  0.5%)
Initial guess               ....       0.034 sec  (  0.0%)
Orbital Transformation      ....       0.000 sec  (  0.0%)
Orbital Orthonormalization  ....       0.000 sec  (  0.0%)
DIIS solution               ....       2.394 sec  (  2.5%)
SOSCF solution              ....       1.255 sec  (  1.3%)
Grid generation             ....       8.587 sec  (  9.1%)

Maximum memory used throughout the entire SCF-calculation: 52.9 MB


-------------------------------------------------------------------------------
                          DFT DISPERSION CORRECTION                            
                                                                               
                              DFTD3 V3.1  Rev 1                                
                          USING Becke-Johnson damping                          
-------------------------------------------------------------------------------
The PBEh-3c composite method is recognized
Using three-body term ABC
Active option DFTDOPT                   ...         4   

molecular C6(AA) [au] = 2121.350958 


            DFT-D V3
 parameters
 s6 scaling factor         :     1.0000 
 a1 scaling factor         :     0.4860 
 s8 scaling factor         :     0.0000 
 a2 scaling factor         :     4.5000 
 Damping factor alpha9(ATM):    16.0000 
 ad hoc parameters k1-k3   :    16.0000     1.3333    -4.0000 

 Edisp/kcal,au: -4.429390273703  -0.007058681955 
 E6   /kcal   :  -4.435761146 
 E8   /kcal   :  -0.000000000 
 E6(ABC)      :   0.006370872 
 % E8         :   0.000000000 
 % E6(ABC)    :  -0.143831811 

-------------------------   ----------------
Dispersion correction           -0.007058682
-------------------------   ----------------

------------------   -----------------
gCP correction             0.018200308
------------------   -----------------

-------------------------   --------------------
FINAL SINGLE POINT ENERGY      -286.965231615166
-------------------------   --------------------


                            ***************************************
                            *     ORCA property calculations      *
                            ***************************************

                                    ---------------------
                                    Active property flags
                                    ---------------------
   (+) Dipole Moment


------------------------------------------------------------------------------
                       ORCA ELECTRIC PROPERTIES CALCULATION
------------------------------------------------------------------------------

Dipole Moment Calculation                       ... on
Quadrupole Moment Calculation                   ... off
Polarizability Calculation                      ... off
GBWName                                         ... pbeh-3c.gbw
Electron density                                ... pbeh-3c.scfp
The origin for moment calculation is the CENTER OF MASS  = ( 0.165794, -0.311992 -0.265345)

-------------
DIPOLE MOMENT
-------------
                                X             Y             Z
Electronic contribution:      1.54775      -2.55145      -1.15487
Nuclear contribution   :     -1.31619       2.39133       1.81021
                        -----------------------------------------
Total Dipole Moment    :      0.23157      -0.16012       0.65534
                        -----------------------------------------
Magnitude (a.u.)       :      0.71326
Magnitude (Debye)      :      1.81295



--------------------
Rotational spectrum 
--------------------
 
Rotational constants in cm-1:     0.189349     0.087271     0.060412 
Rotational constants in MHz :  5676.554662  2616.330666  1811.092175 

 Dipole components along the rotational axes: 
x,y,z [a.u.] :     0.267105    -0.661228    -0.012899 
x,y,z [Debye]:     0.678928    -1.680708    -0.032786 

 

Timings for individual modules:

Sum of individual times         ...       99.592 sec (=   1.660 min)
GTO integral calculation        ...        3.847 sec (=   0.064 min)   3.9 %
SCF iterations                  ...       95.745 sec (=   1.596 min)  96.1 %
                             ****ORCA TERMINATED NORMALLY****
TOTAL RUN TIME: 0 days 0 hours 1 minutes 44 seconds 568 msec
