
                                 *****************
                                 * O   R   C   A *
                                 *****************

                                            #,                                       
                                            ###                                      
                                            ####                                     
                                            #####                                    
                                            ######                                   
                                           ########,                                 
                                     ,,################,,,,,                         
                               ,,#################################,,                 
                          ,,##########################################,,             
                       ,#########################################, ''#####,          
                    ,#############################################,,   '####,        
                  ,##################################################,,,,####,       
                ,###########''''           ''''###############################       
              ,#####''   ,,,,##########,,,,          '''####'''          '####       
            ,##' ,,,,###########################,,,                        '##       
           ' ,,###''''                  '''############,,,                           
         ,,##''                                '''############,,,,        ,,,,,,###''
      ,#''                                            '''#######################'''  
     '                                                          ''''####''''         
             ,#######,   #######,   ,#######,      ##                                
            ,#'     '#,  ##    ##  ,#'     '#,    #''#        ######   ,####,        
            ##       ##  ##   ,#'  ##            #'  '#       #        #'  '#        
            ##       ##  #######   ##           ,######,      #####,   #    #        
            '#,     ,#'  ##    ##  '#,     ,#' ,#      #,         ##   #,  ,#        
             '#######'   ##     ##  '#######'  #'      '#     #####' # '####'        



                  #######################################################
                  #                        -***-                        #
                  #          Department of theory and spectroscopy      #
                  #    Directorship and core code : Frank Neese         #
                  #        Max Planck Institute fuer Kohlenforschung    #
                  #                Kaiser Wilhelm Platz 1               #
                  #                 D-45470 Muelheim/Ruhr               #
                  #                      Germany                        #
                  #                                                     #
                  #                  All rights reserved                #
                  #                        -***-                        #
                  #######################################################


                         Program Version 5.0.3 -  RELEASE  -


 With contributions from (in alphabetic order):
   Daniel Aravena         : Magnetic Suceptibility
   Michael Atanasov       : Ab Initio Ligand Field Theory (pilot matlab implementation)
   Alexander A. Auer      : GIAO ZORA, VPT2 properties, NMR spectrum
   Ute Becker             : Parallelization
   Giovanni Bistoni       : ED, misc. LED, open-shell LED, HFLD
   Martin Brehm           : Molecular dynamics
   Dmytro Bykov           : SCF Hessian
   Vijay G. Chilkuri      : MRCI spin determinant printing, contributions to CSF-ICE
   Dipayan Datta          : RHF DLPNO-CCSD density
   Achintya Kumar Dutta   : EOM-CC, STEOM-CC
   Dmitry Ganyushin       : Spin-Orbit,Spin-Spin,Magnetic field MRCI
   Miquel Garcia          : C-PCM and meta-GGA Hessian, CC/C-PCM, Gaussian charge scheme
   Yang Guo               : DLPNO-NEVPT2, F12-NEVPT2, CIM, IAO-localization
   Andreas Hansen         : Spin unrestricted coupled pair/coupled cluster methods
   Benjamin Helmich-Paris : MC-RPA, TRAH-SCF, COSX integrals
   Lee Huntington         : MR-EOM, pCC
   Robert Izsak           : Overlap fitted RIJCOSX, COSX-SCS-MP3, EOM
   Marcus Kettner         : VPT2
   Christian Kollmar      : KDIIS, OOCD, Brueckner-CCSD(T), CCSD density, CASPT2, CASPT2-K
   Simone Kossmann        : Meta GGA functionals, TD-DFT gradient, OOMP2, MP2 Hessian
   Martin Krupicka        : Initial AUTO-CI
   Lucas Lang             : DCDCAS
   Marvin Lechner         : AUTO-CI (C++ implementation), FIC-MRCC
   Dagmar Lenk            : GEPOL surface, SMD
   Dimitrios Liakos       : Extrapolation schemes; Compound Job, initial MDCI parallelization
   Dimitrios Manganas     : Further ROCIS development; embedding schemes
   Dimitrios Pantazis     : SARC Basis sets
   Anastasios Papadopoulos: AUTO-CI, single reference methods and gradients
   Taras Petrenko         : DFT Hessian,TD-DFT gradient, ASA, ECA, R-Raman, ABS, FL, XAS/XES, NRVS
   Peter Pinski           : DLPNO-MP2, DLPNO-MP2 Gradient
   Christoph Reimann      : Effective Core Potentials
   Marius Retegan         : Local ZFS, SOC
   Christoph Riplinger    : Optimizer, TS searches, QM/MM, DLPNO-CCSD(T), (RO)-DLPNO pert. Triples
   Tobias Risthaus        : Range-separated hybrids, TD-DFT gradient, RPA, STAB
   Michael Roemelt        : Original ROCIS implementation
   Masaaki Saitow         : Open-shell DLPNO-CCSD energy and density
   Barbara Sandhoefer     : DKH picture change effects
   Avijit Sen             : IP-ROCIS
   Kantharuban Sivalingam : CASSCF convergence, NEVPT2, FIC-MRCI
   Bernardo de Souza      : ESD, SOC TD-DFT
   Georgi Stoychev        : AutoAux, RI-MP2 NMR, DLPNO-MP2 response
   Willem Van den Heuvel  : Paramagnetic NMR
   Boris Wezisla          : Elementary symmetry handling
   Frank Wennmohs         : Technical directorship


 We gratefully acknowledge several colleagues who have allowed us to
 interface, adapt or use parts of their codes:
   Stefan Grimme, W. Hujo, H. Kruse, P. Pracht,  : VdW corrections, initial TS optimization,
                  C. Bannwarth, S. Ehlert          DFT functionals, gCP, sTDA/sTD-DF
   Ed Valeev, F. Pavosevic, A. Kumar             : LibInt (2-el integral package), F12 methods
   Garnet Chan, S. Sharma, J. Yang, R. Olivares  : DMRG
   Ulf Ekstrom                                   : XCFun DFT Library
   Mihaly Kallay                                 : mrcc  (arbitrary order and MRCC methods)
   Jiri Pittner, Ondrej Demel                    : Mk-CCSD
   Frank Weinhold                                : gennbo (NPA and NBO analysis)
   Christopher J. Cramer and Donald G. Truhlar   : smd solvation model
   Lars Goerigk                                  : TD-DFT with DH, B97 family of functionals
   V. Asgeirsson, H. Jonsson                     : NEB implementation
   FAccTs GmbH                                   : IRC, NEB, NEB-TS, DLPNO-Multilevel, CI-OPT
                                                   MM, QMMM, 2- and 3-layer-ONIOM, Crystal-QMMM,
                                                   LR-CPCM, SF, NACMEs, symmetry and pop. for TD-DFT,
                                                   nearIR, NL-DFT gradient (VV10), updates on ESD,
                                                   ML-optimized integration grids
   S Lehtola, MJT Oliveira, MAL Marques          : LibXC Library
   Liviu Ungur et al                             : ANISO software


 Your calculation uses the libint2 library for the computation of 2-el integrals
 For citations please refer to: http://libint.valeyev.net

 Your ORCA version has been built with support for libXC version: 5.1.0
 For citations please refer to: https://tddft.org/programs/libxc/

 This ORCA versions uses:
   CBLAS   interface :  Fast vector & matrix operations
   LAPACKE interface :  Fast linear algebra routines
   SCALAPACK package :  Parallel linear algebra routines
   Shared memory     :  Shared parallel matrices
   BLAS/LAPACK       :  OpenBLAS 0.3.15  USE64BITINT DYNAMIC_ARCH NO_AFFINITY Haswell SINGLE_THREADED
        Core in use  :  Haswell
   Copyright (c) 2011-2014, The OpenBLAS Project




***************************************
The coordinates will be read from file: PCH_NBS.xyz
***************************************


Your calculation utilizes the geometrical counterpoise correction gCP
Please cite in your paper:
H.Kruse, S. Grimme J.Chem.Phys., 136, (2012), 154101 
   

Your calculation utilizes the atom-pairwise dispersion correction
with the Becke-Johnson damping scheme (D3BJ)
Cite in your paper:
S.Grimme, S.Ehrlich, L.Goerigk, J Comput Chem, (2011), 32, 1456–1465 
S.Grimme, J.Antony, S.Ehrlich and H.Krieg, J.Chem.Phys., 132, (2010), 154104 
   

Your calculation employs the composite approach PBEh-3c.
Please cite in your paper:
S. Grimme, J. G. Brandenburg, C. Bannwarth, A. Hansen J.Chem.Phys., 143, (2015), 054107 
   

================================================================================

----- Orbital basis set information -----
Your calculation utilizes the basis: def2-mSVP

----- AuxJ basis set information -----
Your calculation utilizes the auxiliary basis: def2/J
   F. Weigend, Phys. Chem. Chem. Phys. 8, 1057 (2006).

================================================================================
                                        WARNINGS
                       Please study these warnings very carefully!
================================================================================


INFO   : the flag for use of the SHARK integral package has been found!

================================================================================
                                       INPUT FILE
================================================================================
NAME = pbeh-3c.inp
|  1> ! PBEh-3c def2/J TightSCF DefGrid3
|  2> 
|  3> %maxcore 60000
|  4> 
|  5> %pal
|  6> nprocs 4
|  7> end
|  8> 
|  9> *xyzfile 0 1 PCH_NBS.xyz
| 10> 
| 11>                          ****END OF INPUT****
================================================================================

                       ****************************
                       * Single Point Calculation *
                       ****************************

---------------------------------
CARTESIAN COORDINATES (ANGSTROEM)
---------------------------------
  P      0.000000    0.000000    3.888092
  C      0.000000    0.000000    5.411997
  H      0.000000    0.000000    6.483542
  N      0.000000    0.000000   -1.344490
  O      0.000000    2.284307   -1.732604
  O      0.000000   -2.284307   -1.732604
  C      0.000000   -1.155928   -2.129421
  C      0.000000   -0.661882   -3.546052
  C      0.000000    0.661882   -3.546052
  H      0.000000    1.347964   -4.378647
  H      0.000000   -1.347964   -4.378647
  C      0.000000    1.155928   -2.129421
  Br     0.000000    0.000000    0.477690

----------------------------
CARTESIAN COORDINATES (A.U.)
----------------------------
  NO LB      ZA    FRAG     MASS         X           Y           Z
   0 P    15.0000    0    30.974    0.000000    0.000000    7.347428
   1 C     6.0000    0    12.011    0.000000    0.000000   10.227191
   2 H     1.0000    0     1.008    0.000000    0.000000   12.252118
   3 N     7.0000    0    14.007    0.000000    0.000000   -2.540718
   4 O     8.0000    0    15.999    0.000000    4.316714   -3.274147
   5 O     8.0000    0    15.999    0.000000   -4.316714   -3.274147
   6 C     6.0000    0    12.011    0.000000   -2.184387   -4.024022
   7 C     6.0000    0    12.011    0.000000   -1.250776   -6.701067
   8 C     6.0000    0    12.011    0.000000    1.250776   -6.701067
   9 H     1.0000    0     1.008    0.000000    2.547283   -8.274443
  10 H     1.0000    0     1.008    0.000000   -2.547283   -8.274443
  11 C     6.0000    0    12.011    0.000000    2.184387   -4.024022
  12 Br   35.0000    0    79.900    0.000000    0.000000    0.902703

--------------------------------
INTERNAL COORDINATES (ANGSTROEM)
--------------------------------
 P      0   0   0     0.000000000000     0.00000000     0.00000000
 C      1   0   0     1.523904900000     0.00000000     0.00000000
 H      2   1   0     1.071544900000   180.00000000     0.00000000
 N      1   2   3     5.232581600000   179.99999852     0.00000000
 O      4   1   2     2.317043381882    99.64272706     0.00000000
 O      4   1   2     2.317043381882    99.64272706     0.00000000
 C      6   4   1     1.196119807582    29.01796581   180.00000000
 C      7   6   4     1.500308121068   128.60130756   180.00000000
 C      8   7   6     1.323764000000   109.22606881   180.00000085
 H      9   8   7     1.078852542071   129.48949068   180.00000085
 H      8   7   6     1.078852542071   121.28444051     0.00000000
 C      5   4   1     1.196119807582    29.01796581   180.00000000
 Br     4   1   2     1.822179900000     0.00000000     0.00000000

---------------------------
INTERNAL COORDINATES (A.U.)
---------------------------
 P      0   0   0     0.000000000000     0.00000000     0.00000000
 C      1   0   0     2.879762915141     0.00000000     0.00000000
 H      2   1   0     2.024926401200   180.00000000     0.00000000
 N      1   2   3     9.888146197395   179.99999852     0.00000000
 O      4   1   2     4.378577432171    99.64272706     0.00000000
 O      4   1   2     4.378577432171    99.64272706     0.00000000
 C      6   4   1     2.260338859689    29.01796581   180.00000000
 C      7   6   4     2.835171465316   128.60130756   180.00000000
 C      8   7   6     2.501551425944   109.22606881   180.00000085
 H      9   8   7     2.038735843399   129.48949068   180.00000085
 H      8   7   6     2.038735843399   121.28444051     0.00000000
 C      5   4   1     2.260338859689    29.01796581   180.00000000
 Br     4   1   2     3.443420977736     0.00000000     0.00000000

---------------------
BASIS SET INFORMATION
---------------------
There are 6 groups of distinct atoms

 Group   1 Type P   : 10s7p1d contracted to 4s3p1d pattern {5311/511/1}
 Group   2 Type C   : 8s4p1d contracted to 4s2p1d pattern {5111/31/1}
 Group   3 Type H   : 4s contracted to 2s pattern {31}
 Group   4 Type N   : 8s4p1d contracted to 4s2p1d pattern {5111/31/1}
 Group   5 Type O   : 8s4p1d contracted to 4s2p1d pattern {5111/31/1}
 Group   6 Type Br  : 14s10p6d contracted to 5s4p3d pattern {63311/5311/411}

Atom   0P    basis set group =>   1
Atom   1C    basis set group =>   2
Atom   2H    basis set group =>   3
Atom   3N    basis set group =>   4
Atom   4O    basis set group =>   5
Atom   5O    basis set group =>   5
Atom   6C    basis set group =>   2
Atom   7C    basis set group =>   2
Atom   8C    basis set group =>   2
Atom   9H    basis set group =>   3
Atom  10H    basis set group =>   3
Atom  11C    basis set group =>   2
Atom  12Br   basis set group =>   6
---------------------------------
AUXILIARY/J BASIS SET INFORMATION
---------------------------------
There are 6 groups of distinct atoms

 Group   1 Type P   : 14s5p5d2f1g contracted to 8s4p3d1f1g pattern {71111111/2111/311/2/1}
 Group   2 Type C   : 12s5p4d2f1g contracted to 6s4p3d1f1g pattern {711111/2111/211/2/1}
 Group   3 Type H   : 5s2p1d contracted to 3s1p1d pattern {311/2/1}
 Group   4 Type N   : 12s5p4d2f1g contracted to 6s4p3d1f1g pattern {711111/2111/211/2/1}
 Group   5 Type O   : 12s5p4d2f1g contracted to 6s4p3d1f1g pattern {711111/2111/211/2/1}
 Group   6 Type Br  : 19s5p5d3f1g contracted to 8s4p3d2f1g pattern {121111111/2111/311/21/1}

Atom   0P    basis set group =>   1
Atom   1C    basis set group =>   2
Atom   2H    basis set group =>   3
Atom   3N    basis set group =>   4
Atom   4O    basis set group =>   5
Atom   5O    basis set group =>   5
Atom   6C    basis set group =>   2
Atom   7C    basis set group =>   2
Atom   8C    basis set group =>   2
Atom   9H    basis set group =>   3
Atom  10H    basis set group =>   3
Atom  11C    basis set group =>   2
Atom  12Br   basis set group =>   6


           ************************************************************
           *        Program running with 4 parallel MPI-processes     *
           *              working on a common directory               *
           ************************************************************
------------------------------------------------------------------------------
                           ORCA GTO INTEGRAL CALCULATION
                           -- RI-GTO INTEGRALS CHOSEN --
------------------------------------------------------------------------------
------------------------------------------------------------------------------
                   ___                                                        
                  /   \      - P O W E R E D   B Y -                         
                 /     \                                                     
                 |  |  |   _    _      __       _____    __    __             
                 |  |  |  | |  | |    /  \     |  _  \  |  |  /  |          
                  \  \/   | |  | |   /    \    | | | |  |  | /  /          
                 / \  \   | |__| |  /  /\  \   | |_| |  |  |/  /          
                |  |  |   |  __  | /  /__\  \  |    /   |      \           
                |  |  |   | |  | | |   __   |  |    \   |  |\   \          
                \     /   | |  | | |  |  |  |  | |\  \  |  | \   \       
                 \___/    |_|  |_| |__|  |__|  |_| \__\ |__|  \__/        
                                                                              
                      - O R C A' S   B I G   F R I E N D -                    
                                      &                                       
                       - I N T E G R A L  F E E D E R -                       
                                                                              
 v1 FN, 2020, v2 2021                                                         
------------------------------------------------------------------------------


Reading SHARK input file pbeh-3c.SHARKINP.tmp ... ok
----------------------
SHARK INTEGRAL PACKAGE
----------------------

Number of atoms                             ...     13
Number of basis functions                   ...    176
Number of shells                            ...     82
Maximum angular momentum                    ...      2
Integral batch strategy                     ... SHARK/LIBINT Hybrid
RI-J (if used) integral strategy            ... SPLIT-RIJ (Revised 2003 algorithm where possible)
Printlevel                                  ...      1
Contraction scheme used                     ... SEGMENTED contraction
Coulomb Range Separation                    ... NOT USED
Exchange Range Separation                   ... NOT USED
Finite Nucleus Model                        ... NOT USED
Auxiliary Coulomb fitting basis             ... AVAILABLE
   # of basis functions in Aux-J            ...    534
   # of shells in Aux-J                     ...    170
   Maximum angular momentum in Aux-J        ...      4
Auxiliary J/K fitting basis                 ... NOT available
Auxiliary Correlation fitting basis         ... NOT available
Auxiliary 'external' fitting basis          ... NOT available
Integral threshold                          ...     2.500000e-11
Primitive cut-off                           ...     2.500000e-12
Primitive pair pre-selection threshold      ...     2.500000e-12

Calculating pre-screening integrals         ... done (  0.1 sec) Dimension = 82
Organizing shell pair data                  ... done (  0.5 sec)
Shell pair information
Total number of shell pairs                 ...      3403
Shell pairs after pre-screening             ...      2418
Total number of primitive shell pairs       ...     13706
Primitive shell pairs kept                  ...      6555
          la=0 lb=0:    710 shell pairs
          la=1 lb=0:    805 shell pairs
          la=1 lb=1:    239 shell pairs
          la=2 lb=0:    378 shell pairs
          la=2 lb=1:    225 shell pairs
          la=2 lb=2:     61 shell pairs

Calculating one electron integrals          ... done (  0.0 sec)
Calculating RI/J V-Matrix + Cholesky decomp.... done (  0.9 sec)
Calculating Nuclear repulsion               ... done (  0.1 sec) ENN=    795.362149460310 Eh

SHARK setup successfully completed in   3.1 seconds

Maximum memory used throughout the entire GTOINT-calculation: 12.1 MB


           ************************************************************
           *        Program running with 4 parallel MPI-processes     *
           *              working on a common directory               *
           ************************************************************
-------------------------------------------------------------------------------
                                 ORCA SCF
-------------------------------------------------------------------------------

------------
SCF SETTINGS
------------
Hamiltonian:
 Density Functional     Method          .... DFT(GTOs)
 Exchange Functional    Exchange        .... PBE
   PBE kappa parameter   XKappa         ....  1.024500
   PBE mue parameter    XMuePBE         ....  0.123457
 Correlation Functional Correlation     .... PBE
   PBE beta parameter  CBetaPBE         ....  0.030000
 LDA part of GGA corr.  LDAOpt          .... PW91-LDA
 Gradients option       PostSCFGGA      .... off
 Hybrid DFT is turned on
   Fraction HF Exchange ScalHFX         ....  0.420000
   Scaling of DF-GGA-X  ScalDFX         ....  0.580000
   Scaling of DF-GGA-C  ScalDFC         ....  1.000000
   Scaling of DF-LDA-C  ScalLDAC        ....  1.000000
   Perturbative correction              ....  0.000000
   Density functional embedding theory  .... OFF
 RI-approximation to the Coulomb term is turned on
   Number of AuxJ basis functions       .... 534
   RIJ-ON(X) (HFX calculated with O(N)) .... on
   Number of AuxJ basis functions       .... 534
   RIJ-COSX (HFX calculated with COS-X)).... on


General Settings:
 Integral files         IntName         .... pbeh-3c
 Hartree-Fock type      HFTyp           .... RHF
 Total Charge           Charge          ....    0
 Multiplicity           Mult            ....    1
 Number of Electrons    NEL             ....  106
 Basis Dimension        Dim             ....  176
 Nuclear Repulsion      ENuc            ....    795.3621494603 Eh

Convergence Acceleration:
 DIIS                   CNVDIIS         .... on
   Start iteration      DIISMaxIt       ....    12
   Startup error        DIISStart       ....  0.200000
   # of expansion vecs  DIISMaxEq       ....     5
   Bias factor          DIISBfac        ....   1.050
   Max. coefficient     DIISMaxC        ....  10.000
 Trust-Rad. Augm. Hess. CNVTRAH         .... auto
   Auto Start mean grad. ratio tolernc. ....  1.125000
   Auto Start start iteration           ....    20
   Auto Start num. interpolation iter.  ....    10
   Max. Number of Micro iterations      ....    16
   Max. Number of Macro iterations      .... Maxiter - #DIIS iter
   Number of Davidson start vectors     ....     2
   Converg. threshold I  (grad. norm)   ....   1.000e-05
   Converg. threshold II (energy diff.) ....   1.000e-08
   Grad. Scal. Fac. for Micro threshold ....   0.100
   Minimum threshold for Micro iter.    ....   0.010
   NR start threshold (gradient norm)   ....   0.001
   Initial trust radius                 ....   0.400
   Minimum AH scaling param. (alpha)    ....   1.000
   Maximum AH scaling param. (alpha)    .... 1000.000
   Orbital update algorithm             .... Taylor
   White noise on init. David. guess    .... on
   Maximum white noise                  ....   0.010
   Quad. conv. algorithm                .... NR
   COSX micro iterations for RIJONX calc.... off
 SOSCF                  CNVSOSCF        .... on
   Start iteration      SOSCFMaxIt      ....   150
   Startup grad/error   SOSCFStart      ....  0.003300
 Level Shifting         CNVShift        .... on
   Level shift para.    LevelShift      ....    0.2500
   Turn off err/grad.   ShiftErr        ....    0.0010
 Zerner damping         CNVZerner       .... off
 Static damping         CNVDamp         .... on
   Fraction old density DampFac         ....    0.7000
   Max. Damping (<1)    DampMax         ....    0.9800
   Min. Damping (>=0)   DampMin         ....    0.0000
   Turn off err/grad.   DampErr         ....    0.1000
 Fernandez-Rico         CNVRico         .... off

SCF Procedure:
 Maximum # iterations   MaxIter         ....   125
 SCF integral mode      SCFMode         .... Direct
   Integral package                     .... SHARK and LIBINT hybrid scheme
 Reset frequency        DirectResetFreq ....    20
 Integral Threshold     Thresh          ....  2.500e-11 Eh
 Primitive CutOff       TCut            ....  2.500e-12 Eh

Convergence Tolerance:
 Convergence Check Mode ConvCheckMode   .... Total+1el-Energy
 Convergence forced     ConvForced      .... 0
 Energy Change          TolE            ....  1.000e-08 Eh
 1-El. energy change                    ....  1.000e-05 Eh
 Orbital Gradient       TolG            ....  1.000e-05
 Orbital Rotation angle TolX            ....  1.000e-05
 DIIS Error             TolErr          ....  5.000e-07


Diagonalization of the overlap matrix:
Smallest eigenvalue                        ... 1.267e-03
Time for diagonalization                   ...    0.005 sec
Threshold for overlap eigenvalues          ... 1.000e-08
Number of eigenvalues below threshold      ... 0
Time for construction of square roots      ...    0.244 sec
Total time needed                          ...    0.249 sec

--------------------------------
INITIAL GUESS: MINIMAL BASIS EHT
--------------------------------
The minimal basis has 70 functions
EHT matrix was diagonalized
Basis set overlap was calculated now projecting the orbitals
Using GuessMode=FMatrix for the initial guess
C*T matrix was formed
Effective Fockian was calculated
Effective Fockian was diagonalized
Initial density was built
                      ------------------
                      INITIAL GUESS DONE
                      ------------------
-------------------
DFT GRID GENERATION
-------------------

General Integration Accuracy     IntAcc      ... 4.959
Radial Grid Type                 RadialGrid  ... OptM3 with GC (2021)
Angular Grid (max. ang.)         AngularGrid ... 6 (Lebedev-590)
Angular grid pruning method      GridPruning ... 4 (adaptive)
Weight generation scheme         WeightScheme... Becke
Basis function cutoff            BFCut       ... 1.0000e-11
Integration weight cutoff        WCut        ... 1.0000e-14
Angular grids for H and He will be reduced by one unit
Partially contracted basis set               ... off
Rotationally invariant grid construction     ... off

Total number of grid points                  ...   185740
Total number of batches                      ...     2909
Average number of points per batch           ...       63
Average number of grid points per atom       ...    14288
Time for grid setup =    4.631 sec

--------------------
COSX GRID GENERATION
--------------------

GRIDX 1
-------
General Integration Accuracy     IntAcc      ... 4.020
Radial Grid Type                 RadialGrid  ... OptM3 with GC (2021)
Angular Grid (max. ang.)         AngularGrid ... 2 (Lebedev-110)
Angular grid pruning method      GridPruning ... 4 (adaptive)
Weight generation scheme         WeightScheme... Becke
Basis function cutoff            BFCut       ... 1.0000e-11
Integration weight cutoff        WCut        ... 1.0000e-14
Angular grids for H and He will be reduced by one unit
Partially contracted basis set               ... on
Rotationally invariant grid construction     ... off

Total number of grid points                  ...    21585
Total number of batches                      ...      346
Average number of points per batch           ...       62
Average number of grid points per atom       ...     1660
UseSFitting                                  ... on

GRIDX 2
-------
General Integration Accuracy     IntAcc      ... 4.338
Radial Grid Type                 RadialGrid  ... OptM3 with GC (2021)
Angular Grid (max. ang.)         AngularGrid ... 3 (Lebedev-194)
Angular grid pruning method      GridPruning ... 4 (adaptive)
Weight generation scheme         WeightScheme... Becke
Basis function cutoff            BFCut       ... 1.0000e-11
Integration weight cutoff        WCut        ... 1.0000e-14
Angular grids for H and He will be reduced by one unit
Partially contracted basis set               ... on
Rotationally invariant grid construction     ... off

Total number of grid points                  ...    48586
Total number of batches                      ...      766
Average number of points per batch           ...       63
Average number of grid points per atom       ...     3737
UseSFitting                                  ... on

GRIDX 3
-------
General Integration Accuracy     IntAcc      ... 4.871
Radial Grid Type                 RadialGrid  ... OptM3 with GC (2021)
Angular Grid (max. ang.)         AngularGrid ... 4 (Lebedev-302)
Angular grid pruning method      GridPruning ... 4 (adaptive)
Weight generation scheme         WeightScheme... Becke
Basis function cutoff            BFCut       ... 1.0000e-11
Integration weight cutoff        WCut        ... 1.0000e-14
Angular grids for H and He will be reduced by one unit
Partially contracted basis set               ... on
Rotationally invariant grid construction     ... off

Total number of grid points                  ...    88961
Total number of batches                      ...     1397
Average number of points per batch           ...       63
Average number of grid points per atom       ...     6843
UseSFitting                                  ... on

Time for X-Grid setup             =    3.967 sec

--------------
SCF ITERATIONS
--------------
ITER       Energy         Delta-E        Max-DP      RMS-DP      [F,P]     Damp
               ***  Starting incremental Fock matrix formation  ***
  0  -3306.7368585875   0.000000000000 0.19323044  0.00762815  1.8408968 0.7000
  1  -3308.1313153372  -1.394456749677 0.15418757  0.00430399  1.0040314 0.7000
  2  -3308.8658558352  -0.734540497998 0.16117944  0.00270954  0.5532358 0.7000
  3  -3309.3663613032  -0.500505468017 0.13970660  0.00199689  0.3147656 0.7000
                               ***Turning on DIIS***
  4  -3309.7181303073  -0.351769004062 0.11092591  0.00147065  0.1846610 0.7000
  5  -3309.9641239602  -0.245993652953 0.09083566  0.00110630  0.1111167 0.7000
  6  -3310.1365488804  -0.172424920153 0.22442082  0.00271283  0.0791872 0.0000
  7  -3310.5423437924  -0.405794912003 0.00733603  0.00013985  0.0049279 0.0000
                      *** Initiating the SOSCF procedure ***
                           *** Shutting down DIIS ***
                      *** Re-Reading the Fockian *** 
                      *** Removing any level shift *** 
ITER      Energy       Delta-E        Grad      Rot      Max-DP    RMS-DP
  8  -3310.54248903  -0.0001452367  0.001162  0.001162  0.003557  0.000061
               *** Restarting incremental Fock matrix formation ***
  9  -3310.54251142  -0.0000223915  0.000598  0.001076  0.002023  0.000052
 10  -3310.54251319  -0.0000017737  0.001112  0.001550  0.001513  0.000031
 11  -3310.54252073  -0.0000075325  0.000149  0.000295  0.000303  0.000009
 12  -3310.54252098  -0.0000002540  0.000083  0.000089  0.000167  0.000003
 13  -3310.54252099  -0.0000000113  0.000039  0.000038  0.000110  0.000002
 14  -3310.54252102  -0.0000000324  0.000032  0.000012  0.000068  0.000001
 15  -3310.54252103  -0.0000000058  0.000013  0.000008  0.000032  0.000000
                  ***Gradient check signals convergence***
              ***Rediagonalizing the Fockian in SOSCF/NRSCF***

               *****************************************************
               *                     SUCCESS                       *
               *           SCF CONVERGED AFTER  16 CYCLES          *
               *****************************************************

Old exchange energy                            =    -68.114635446 Eh
New exchange energy                            =    -68.114643964 Eh
Exchange energy change after final integration =     -0.000008518 Eh
Total energy after final integration           =  -3310.542529548 Eh
Final COS-X integration done in                =     4.978 sec

----------------
TOTAL SCF ENERGY
----------------

Total Energy       :        -3310.54252955 Eh          -90084.44203 eV

Components:
Nuclear Repulsion  :          795.36214946 Eh           21642.90439 eV
Electronic Energy  :        -4105.90467901 Eh         -111727.34642 eV
One Electron Energy:        -6176.05367332 Eh         -168058.96440 eV
Two Electron Energy:         2070.14899432 Eh           56331.61798 eV
Max COSX asymmetry :            0.00000177 Eh               0.00005 eV

Virial components:
Potential Energy   :        -6616.05586282 Eh         -180032.03268 eV
Kinetic Energy     :         3305.51333328 Eh           89947.59065 eV
Virial Ratio       :            2.00152146


DFT components:
N(Alpha)           :       52.999994370225 electrons
N(Beta)            :       52.999994370225 electrons
N(Total)           :      105.999988740450 electrons
E(X)               :      -91.305610126079 Eh       
E(C)               :       -5.458903532086 Eh       
E(XC)              :      -96.764513658164 Eh       
DFET-embed. en.    :        0.000000000000 Eh       

---------------
SCF CONVERGENCE
---------------

  Last Energy change         ...    1.0004e-10  Tolerance :   1.0000e-08
  Last MAX-Density change    ...    3.1086e-15  Tolerance :   1.0000e-07
  Last RMS-Density change    ...    5.6223e-17  Tolerance :   5.0000e-09
  Last Orbital Gradient      ...    1.7867e-06  Tolerance :   1.0000e-05
  Last Orbital Rotation      ...    1.8388e-06  Tolerance :   1.0000e-05

             **** THE GBW FILE WAS UPDATED (pbeh-3c.gbw) ****
             **** DENSITY pbeh-3c.scfp WAS UPDATED ****
             **** ENERGY FILE WAS UPDATED (pbeh-3c.en.tmp) ****
             **** THE GBW FILE WAS UPDATED (pbeh-3c.gbw) ****
             **** DENSITY pbeh-3c.scfp WAS UPDATED ****
----------------
ORBITAL ENERGIES
----------------

  NO   OCC          E(Eh)            E(eV) 
   0   2.0000    -484.576854    -13186.0065 
   1   2.0000     -77.753039     -2115.7678 
   2   2.0000     -63.237867     -1720.7898 
   3   2.0000     -56.943008     -1549.4980 
   4   2.0000     -56.939445     -1549.4011 
   5   2.0000     -56.939404     -1549.3999 
   6   2.0000     -19.518146      -531.1158 
   7   2.0000     -19.518132      -531.1154 
   8   2.0000     -14.734743      -400.9528 
   9   2.0000     -10.596907      -288.3565 
  10   2.0000     -10.596865      -288.3553 
  11   2.0000     -10.504854      -285.8516 
  12   2.0000     -10.503846      -285.8242 
  13   2.0000     -10.492262      -285.5090 
  14   2.0000      -9.066407      -246.7095 
  15   2.0000      -6.845006      -186.2621 
  16   2.0000      -6.831031      -185.8818 
  17   2.0000      -6.825909      -185.7424 
  18   2.0000      -6.825657      -185.7356 
  19   2.0000      -4.920517      -133.8941 
  20   2.0000      -4.920502      -133.8937 
  21   2.0000      -4.920296      -133.8881 
  22   2.0000      -2.858270       -77.7775 
  23   2.0000      -2.852275       -77.6143 
  24   2.0000      -2.852174       -77.6116 
  25   2.0000      -2.835720       -77.1639 
  26   2.0000      -2.835717       -77.1638 
  27   2.0000      -1.213603       -33.0238 
  28   2.0000      -1.194157       -32.4947 
  29   2.0000      -1.094891       -29.7935 
  30   2.0000      -0.958927       -26.0937 
  31   2.0000      -0.860055       -23.4033 
  32   2.0000      -0.811180       -22.0733 
  33   2.0000      -0.783646       -21.3241 
  34   2.0000      -0.703851       -19.1528 
  35   2.0000      -0.660170       -17.9641 
  36   2.0000      -0.615001       -16.7350 
  37   2.0000      -0.588222       -16.0063 
  38   2.0000      -0.563095       -15.3226 
  39   2.0000      -0.546974       -14.8839 
  40   2.0000      -0.532931       -14.5018 
  41   2.0000      -0.527143       -14.3443 
  42   2.0000      -0.508583       -13.8393 
  43   2.0000      -0.477923       -13.0049 
  44   2.0000      -0.419104       -11.4044 
  45   2.0000      -0.414348       -11.2750 
  46   2.0000      -0.378831       -10.3085 
  47   2.0000      -0.371885       -10.1195 
  48   2.0000      -0.368636       -10.0311 
  49   2.0000      -0.345350        -9.3974 
  50   2.0000      -0.336843        -9.1660 
  51   2.0000      -0.335869        -9.1395 
  52   2.0000      -0.320306        -8.7160 
  53   0.0000      -0.084603        -2.3022 
  54   0.0000      -0.035784        -0.9737 
  55   0.0000      -0.028390        -0.7725 
  56   0.0000      -0.028379        -0.7722 
  57   0.0000       0.082878         2.2552 
  58   0.0000       0.090756         2.4696 
  59   0.0000       0.143861         3.9147 
  60   0.0000       0.158216         4.3053 
  61   0.0000       0.163277         4.4430 
  62   0.0000       0.189356         5.1527 
  63   0.0000       0.213115         5.7992 
  64   0.0000       0.215163         5.8549 
  65   0.0000       0.230821         6.2810 
  66   0.0000       0.307375         8.3641 
  67   0.0000       0.338633         9.2147 
  68   0.0000       0.339169         9.2293 
  69   0.0000       0.377505        10.2724 
  70   0.0000       0.380551        10.3553 
  71   0.0000       0.465026        12.6540 
  72   0.0000       0.470925        12.8145 
  73   0.0000       0.506702        13.7881 
  74   0.0000       0.507856        13.8195 
  75   0.0000       0.516410        14.0522 
  76   0.0000       0.521125        14.1805 
  77   0.0000       0.524157        14.2630 
  78   0.0000       0.524961        14.2849 
  79   0.0000       0.529348        14.4043 
  80   0.0000       0.545240        14.8367 
  81   0.0000       0.559435        15.2230 
  82   0.0000       0.568964        15.4823 
  83   0.0000       0.577274        15.7084 
  84   0.0000       0.600917        16.3518 
  85   0.0000       0.600920        16.3519 
  86   0.0000       0.616273        16.7696 
  87   0.0000       0.624827        17.0024 
  88   0.0000       0.646232        17.5849 
  89   0.0000       0.647286        17.6135 
  90   0.0000       0.652701        17.7609 
  91   0.0000       0.655514        17.8375 
  92   0.0000       0.658021        17.9057 
  93   0.0000       0.690179        18.7807 
  94   0.0000       0.691863        18.8266 
  95   0.0000       0.698615        19.0103 
  96   0.0000       0.698859        19.0169 
  97   0.0000       0.750225        20.4147 
  98   0.0000       0.761442        20.7199 
  99   0.0000       0.786359        21.3979 
 100   0.0000       0.850339        23.1389 
 101   0.0000       0.864086        23.5130 
 102   0.0000       0.909186        24.7402 
 103   0.0000       0.932418        25.3724 
 104   0.0000       0.942907        25.6578 
 105   0.0000       0.946150        25.7460 
 106   0.0000       0.959613        26.1124 
 107   0.0000       1.004164        27.3247 
 108   0.0000       1.035101        28.1665 
 109   0.0000       1.081702        29.4346 
 110   0.0000       1.092484        29.7280 
 111   0.0000       1.103191        30.0194 
 112   0.0000       1.132395        30.8140 
 113   0.0000       1.139982        31.0205 
 114   0.0000       1.184955        32.2443 
 115   0.0000       1.192532        32.4504 
 116   0.0000       1.320532        35.9335 
 117   0.0000       1.325764        36.0759 
 118   0.0000       1.331603        36.2348 
 119   0.0000       1.363699        37.1081 
 120   0.0000       1.392632        37.8954 
 121   0.0000       1.407569        38.3019 
 122   0.0000       1.434937        39.0466 
 123   0.0000       1.462465        39.7957 
 124   0.0000       1.558610        42.4119 
 125   0.0000       1.637098        44.5477 
 126   0.0000       1.672066        45.4992 
 127   0.0000       1.765922        48.0532 
 128   0.0000       1.765927        48.0533 
 129   0.0000       1.780131        48.4398 
 130   0.0000       1.790712        48.7278 
 131   0.0000       1.800949        49.0063 
 132   0.0000       1.836750        49.9805 
 133   0.0000       1.853916        50.4476 
 134   0.0000       1.904576        51.8262 
 135   0.0000       1.958283        53.2876 
 136   0.0000       1.958312        53.2884 
 137   0.0000       1.973474        53.7010 
 138   0.0000       2.007798        54.6350 
 139   0.0000       2.037614        55.4463 
 140   0.0000       2.089871        56.8683 
 141   0.0000       2.102780        57.2196 
 142   0.0000       2.123409        57.7809 
 143   0.0000       2.124478        57.8100 
 144   0.0000       2.216169        60.3050 
 145   0.0000       2.231938        60.7341 
 146   0.0000       2.313782        62.9612 
 147   0.0000       2.369907        64.4884 
 148   0.0000       2.373370        64.5827 
 149   0.0000       2.453197        66.7549 
 150   0.0000       2.548074        69.3366 
 151   0.0000       2.584580        70.3300 
 152   0.0000       2.669754        72.6477 
 153   0.0000       2.674746        72.7836 
 154   0.0000       2.732133        74.3451 
 155   0.0000       2.740015        74.5596 
 156   0.0000       2.749224        74.8102 
 157   0.0000       2.915318        79.3298 
 158   0.0000       2.946152        80.1689 
 159   0.0000       3.008397        81.8626 
 160   0.0000       3.115422        84.7749 
 161   0.0000       3.158221        85.9396 
 162   0.0000       3.245122        88.3043 
 163   0.0000       3.500330        95.2488 
 164   0.0000       3.514485        95.6340 
 165   0.0000       3.575567        97.2961 
 166   0.0000       3.658020        99.5398 
 167   0.0000       3.826043       104.1119 
 168   0.0000      13.356661       363.4532 
 169   0.0000      13.583302       369.6204 
 170   0.0000      13.879727       377.6866 
 171   0.0000      13.949248       379.5783 
 172   0.0000      14.240093       387.4926 
 173   0.0000      19.311468       525.4918 
 174   0.0000      25.729433       700.1335 
 175   0.0000      25.760810       700.9873 

                    ********************************
                    * MULLIKEN POPULATION ANALYSIS *
                    ********************************

-----------------------
MULLIKEN ATOMIC CHARGES
-----------------------
   0 P :    0.151967
   1 C :   -0.399312
   2 H :    0.255866
   3 N :   -0.709705
   4 O :   -0.322298
   5 O :   -0.322298
   6 C :    0.577401
   7 C :   -0.289767
   8 C :   -0.289767
   9 H :    0.271475
  10 H :    0.271475
  11 C :    0.577401
  12 Br:    0.227561
Sum of atomic charges:   -0.0000000

--------------------------------
MULLIKEN REDUCED ORBITAL CHARGES
--------------------------------
  0 P s       :     5.778445  s :     5.778445
      pz      :     3.031874  p :     8.964601
      px      :     2.966767
      py      :     2.965961
      dz2     :     0.038740  d :     0.104986
      dxz     :     0.033133
      dyz     :     0.033112
      dx2y2   :     0.000000
      dxy     :     0.000000
  1 C s       :     3.370338  s :     3.370338
      pz      :     1.014003  p :     3.009627
      px      :     0.997690
      py      :     0.997934
      dz2     :     0.010047  d :     0.019347
      dxz     :     0.004649
      dyz     :     0.004651
      dx2y2   :     0.000000
      dxy     :     0.000000
  2 H s       :     0.744134  s :     0.744134
  3 N s       :     3.618732  s :     3.618732
      pz      :     1.127371  p :     4.047771
      px      :     1.677432
      py      :     1.242969
      dz2     :     0.010573  d :     0.043202
      dxz     :     0.007145
      dyz     :     0.016545
      dx2y2   :     0.005056
      dxy     :     0.003883
  4 O s       :     3.755927  s :     3.755927
      pz      :     1.743801  p :     4.534063
      px      :     1.363437
      py      :     1.426824
      dz2     :     0.003884  d :     0.032309
      dxz     :     0.001481
      dyz     :     0.008070
      dx2y2   :     0.007495
      dxy     :     0.011378
  5 O s       :     3.755927  s :     3.755927
      pz      :     1.743801  p :     4.534063
      px      :     1.363437
      py      :     1.426824
      dz2     :     0.003884  d :     0.032309
      dxz     :     0.001481
      dyz     :     0.008070
      dx2y2   :     0.007495
      dxy     :     0.011378
  6 C s       :     2.929890  s :     2.929890
      pz      :     0.812472  p :     2.368855
      px      :     0.776116
      py      :     0.780266
      dz2     :     0.022235  d :     0.123854
      dxz     :     0.007904
      dyz     :     0.047968
      dx2y2   :     0.019286
      dxy     :     0.026462
  7 C s       :     3.319500  s :     3.319500
      pz      :     1.020933  p :     2.931910
      px      :     0.959184
      py      :     0.951793
      dz2     :     0.009629  d :     0.038357
      dxz     :     0.001981
      dyz     :     0.014710
      dx2y2   :     0.005439
      dxy     :     0.006598
  8 C s       :     3.319500  s :     3.319500
      pz      :     1.020933  p :     2.931910
      px      :     0.959184
      py      :     0.951793
      dz2     :     0.009629  d :     0.038357
      dxz     :     0.001981
      dyz     :     0.014710
      dx2y2   :     0.005439
      dxy     :     0.006598
  9 H s       :     0.728525  s :     0.728525
 10 H s       :     0.728525  s :     0.728525
 11 C s       :     2.929890  s :     2.929890
      pz      :     0.812472  p :     2.368854
      px      :     0.776116
      py      :     0.780266
      dz2     :     0.022235  d :     0.123854
      dxz     :     0.007904
      dyz     :     0.047968
      dx2y2   :     0.019286
      dxy     :     0.026462
 12 Brs       :     7.951916  s :     7.951916
      pz      :     4.810082  p :    16.762660
      px      :     5.981745
      py      :     5.970834
      dz2     :     2.033086  d :    10.057863
      dxz     :     2.018325
      dyz     :     2.005675
      dx2y2   :     2.000628
      dxy     :     2.000149


                     *******************************
                     * LOEWDIN POPULATION ANALYSIS *
                     *******************************

----------------------
LOEWDIN ATOMIC CHARGES
----------------------
   0 P :    0.228298
   1 C :   -0.371077
   2 H :    0.155548
   3 N :   -0.227951
   4 O :   -0.160616
   5 O :   -0.160616
   6 C :    0.121872
   7 C :   -0.124814
   8 C :   -0.124814
   9 H :    0.162647
  10 H :    0.162647
  11 C :    0.121872
  12 Br:    0.217002

-------------------------------
LOEWDIN REDUCED ORBITAL CHARGES
-------------------------------
  0 P s       :     5.548557  s :     5.548557
      pz      :     3.196351  p :     9.083555
      px      :     2.943949
      py      :     2.943255
      dz2     :     0.065242  d :     0.139590
      dxz     :     0.037191
      dyz     :     0.037156
      dx2y2   :     0.000000
      dxy     :     0.000000
  1 C s       :     3.106172  s :     3.106172
      pz      :     1.205521  p :     3.232439
      px      :     1.013383
      py      :     1.013535
      dz2     :     0.016907  d :     0.032466
      dxz     :     0.007780
      dyz     :     0.007779
      dx2y2   :     0.000000
      dxy     :     0.000000
  2 H s       :     0.844452  s :     0.844452
  3 N s       :     3.143497  s :     3.143497
      pz      :     1.139572  p :     3.981313
      px      :     1.614158
      py      :     1.227583
      dz2     :     0.025416  d :     0.103141
      dxz     :     0.012549
      dyz     :     0.044566
      dx2y2   :     0.012087
      dxy     :     0.008521
  4 O s       :     3.509070  s :     3.509070
      pz      :     1.736365  p :     4.591699
      px      :     1.352836
      py      :     1.502497
      dz2     :     0.007740  d :     0.059847
      dxz     :     0.001864
      dyz     :     0.017599
      dx2y2   :     0.017724
      dxy     :     0.014919
  5 O s       :     3.509070  s :     3.509070
      pz      :     1.736365  p :     4.591699
      px      :     1.352836
      py      :     1.502497
      dz2     :     0.007740  d :     0.059847
      dxz     :     0.001864
      dyz     :     0.017599
      dx2y2   :     0.017724
      dxy     :     0.014919
  6 C s       :     2.820699  s :     2.820699
      pz      :     0.995379  p :     2.774570
      px      :     0.784537
      py      :     0.994653
      dz2     :     0.051668  d :     0.282859
      dxz     :     0.014877
      dyz     :     0.115306
      dx2y2   :     0.048185
      dxy     :     0.052823
  7 C s       :     2.927146  s :     2.927146
      pz      :     1.058268  p :     3.111661
      px      :     0.945491
      py      :     1.107902
      dz2     :     0.023065  d :     0.086007
      dxz     :     0.003464
      dyz     :     0.034456
      dx2y2   :     0.013871
      dxy     :     0.011150
  8 C s       :     2.927146  s :     2.927146
      pz      :     1.058268  p :     3.111661
      px      :     0.945491
      py      :     1.107902
      dz2     :     0.023065  d :     0.086007
      dxz     :     0.003464
      dyz     :     0.034456
      dx2y2   :     0.013871
      dxy     :     0.011150
  9 H s       :     0.837353  s :     0.837353
 10 H s       :     0.837353  s :     0.837353
 11 C s       :     2.820699  s :     2.820699
      pz      :     0.995379  p :     2.774570
      px      :     0.784537
      py      :     0.994653
      dz2     :     0.051668  d :     0.282859
      dxz     :     0.014877
      dyz     :     0.115306
      dx2y2   :     0.048185
      dxy     :     0.052823
 12 Brs       :     7.847996  s :     7.847996
      pz      :     4.908858  p :    16.825170
      px      :     5.968100
      py      :     5.948212
      dz2     :     2.068717  d :    10.109832
      dxz     :     2.030309
      dyz     :     2.009972
      dx2y2   :     2.000698
      dxy     :     2.000135


                      *****************************
                      * MAYER POPULATION ANALYSIS *
                      *****************************

  NA   - Mulliken gross atomic population
  ZA   - Total nuclear charge
  QA   - Mulliken gross atomic charge
  VA   - Mayer's total valence
  BVA  - Mayer's bonded valence
  FA   - Mayer's free valence

  ATOM       NA         ZA         QA         VA         BVA        FA
  0 P     14.8480    15.0000     0.1520     2.9663     2.9663    -0.0000
  1 C      6.3993     6.0000    -0.3993     3.8092     3.8092    -0.0000
  2 H      0.7441     1.0000     0.2559     0.9082     0.9082    -0.0000
  3 N      7.7097     7.0000    -0.7097     2.9699     2.9699     0.0000
  4 O      8.3223     8.0000    -0.3223     2.2967     2.2967    -0.0000
  5 O      8.3223     8.0000    -0.3223     2.2967     2.2967     0.0000
  6 C      5.4226     6.0000     0.5774     4.0151     4.0151     0.0000
  7 C      6.2898     6.0000    -0.2898     3.6888     3.6888     0.0000
  8 C      6.2898     6.0000    -0.2898     3.6888     3.6888     0.0000
  9 H      0.7285     1.0000     0.2715     0.9047     0.9047     0.0000
 10 H      0.7285     1.0000     0.2715     0.9047     0.9047    -0.0000
 11 C      5.4226     6.0000     0.5774     4.0151     4.0151     0.0000
 12 Br    34.7724    35.0000     0.2276     1.0625     1.0625    -0.0000

  Mayer bond orders larger than 0.100000
B(  0-P ,  1-C ) :   2.9133 B(  1-C ,  2-H ) :   0.8916 B(  3-N ,  6-C ) :   0.9523 
B(  3-N , 11-C ) :   0.9523 B(  3-N , 12-Br) :   0.9320 B(  4-O , 11-C ) :   2.1069 
B(  5-O ,  6-C ) :   2.1069 B(  6-C ,  7-C ) :   0.9665 B(  7-C ,  8-C ) :   1.7715 
B(  7-C , 10-H ) :   0.9095 B(  8-C ,  9-H ) :   0.9095 B(  8-C , 11-C ) :   0.9665 


-------
TIMINGS
-------

Total SCF time: 0 days 0 hours 2 min 2 sec 

Total time                  ....     122.052 sec
Sum of individual times     ....     112.977 sec  ( 92.6%)

Fock matrix formation       ....      99.680 sec  ( 81.7%)
  Split-RI-J                ....      10.735 sec  ( 10.8% of F)
  Chain of spheres X        ....      43.517 sec  ( 43.7% of F)
  XC integration            ....      26.488 sec  ( 26.6% of F)
    Basis function eval.    ....       4.007 sec  ( 15.1% of XC)
    Density eval.           ....       2.341 sec  (  8.8% of XC)
    XC-Functional eval.     ....       1.806 sec  (  6.8% of XC)
    XC-Potential eval.      ....       1.487 sec  (  5.6% of XC)
Diagonalization             ....       0.901 sec  (  0.7%)
Density matrix formation    ....       0.237 sec  (  0.2%)
Population analysis         ....       0.972 sec  (  0.8%)
Initial guess               ....       0.083 sec  (  0.1%)
Orbital Transformation      ....       0.000 sec  (  0.0%)
Orbital Orthonormalization  ....       0.000 sec  (  0.0%)
DIIS solution               ....       1.556 sec  (  1.3%)
SOSCF solution              ....       0.949 sec  (  0.8%)
Grid generation             ....       8.598 sec  (  7.0%)

Maximum memory used throughout the entire SCF-calculation: 56.8 MB


-------------------------------------------------------------------------------
                          DFT DISPERSION CORRECTION                            
                                                                               
                              DFTD3 V3.1  Rev 1                                
                          USING Becke-Johnson damping                          
-------------------------------------------------------------------------------
The PBEh-3c composite method is recognized
Using three-body term ABC
Active option DFTDOPT                   ...         4   

molecular C6(AA) [au] = 4571.333043 


            DFT-D V3
 parameters
 s6 scaling factor         :     1.0000 
 a1 scaling factor         :     0.4860 
 s8 scaling factor         :     0.0000 
 a2 scaling factor         :     4.5000 
 Damping factor alpha9(ATM):    16.0000 
 ad hoc parameters k1-k3   :    16.0000     1.3333    -4.0000 

 Edisp/kcal,au: -4.486306812219  -0.007149384223 
 E6   /kcal   :  -4.469289660 
 E8   /kcal   :  -0.000000000 
 E6(ABC)      :  -0.017017152 
 % E8         :   0.000000000 
 % E6(ABC)    :   0.379313165 

-------------------------   ----------------
Dispersion correction           -0.007149384
-------------------------   ----------------

------------------   -----------------
gCP correction             0.018192797
------------------   -----------------

-------------------------   --------------------
FINAL SINGLE POINT ENERGY     -3310.531486135153
-------------------------   --------------------


                            ***************************************
                            *     ORCA property calculations      *
                            ***************************************

                                    ---------------------
                                    Active property flags
                                    ---------------------
   (+) Dipole Moment


------------------------------------------------------------------------------
                       ORCA ELECTRIC PROPERTIES CALCULATION
------------------------------------------------------------------------------

Dipole Moment Calculation                       ... on
Quadrupole Moment Calculation                   ... off
Polarizability Calculation                      ... off
GBWName                                         ... pbeh-3c.gbw
Electron density                                ... pbeh-3c.scfp
The origin for moment calculation is the CENTER OF MASS  = ( 0.000000, -0.000000  0.091930)

-------------
DIPOLE MOMENT
-------------
                                X             Y             Z
Electronic contribution:      0.00000      -0.00000       9.19723
Nuclear contribution   :      0.00000      -0.00000      -9.74464
                        -----------------------------------------
Total Dipole Moment    :      0.00000      -0.00000      -0.54741
                        -----------------------------------------
Magnitude (a.u.)       :      0.54741
Magnitude (Debye)      :      1.39141



--------------------
Rotational spectrum 
--------------------
 
Rotational constants in cm-1:     0.079050     0.011617     0.010128 
Rotational constants in MHz :  2369.873213   348.263240   303.641755 

 Dipole components along the rotational axes: 
x,y,z [a.u.] :    -0.547413    -0.000000     0.000000 
x,y,z [Debye]:    -1.391414    -0.000000     0.000000 

 

Timings for individual modules:

Sum of individual times         ...      126.534 sec (=   2.109 min)
GTO integral calculation        ...        3.848 sec (=   0.064 min)   3.0 %
SCF iterations                  ...      122.685 sec (=   2.045 min)  97.0 %
                             ****ORCA TERMINATED NORMALLY****
TOTAL RUN TIME: 0 days 0 hours 2 minutes 11 seconds 826 msec
