
                                 *****************
                                 * O   R   C   A *
                                 *****************

                                            #,                                       
                                            ###                                      
                                            ####                                     
                                            #####                                    
                                            ######                                   
                                           ########,                                 
                                     ,,################,,,,,                         
                               ,,#################################,,                 
                          ,,##########################################,,             
                       ,#########################################, ''#####,          
                    ,#############################################,,   '####,        
                  ,##################################################,,,,####,       
                ,###########''''           ''''###############################       
              ,#####''   ,,,,##########,,,,          '''####'''          '####       
            ,##' ,,,,###########################,,,                        '##       
           ' ,,###''''                  '''############,,,                           
         ,,##''                                '''############,,,,        ,,,,,,###''
      ,#''                                            '''#######################'''  
     '                                                          ''''####''''         
             ,#######,   #######,   ,#######,      ##                                
            ,#'     '#,  ##    ##  ,#'     '#,    #''#        ######   ,####,        
            ##       ##  ##   ,#'  ##            #'  '#       #        #'  '#        
            ##       ##  #######   ##           ,######,      #####,   #    #        
            '#,     ,#'  ##    ##  '#,     ,#' ,#      #,         ##   #,  ,#        
             '#######'   ##     ##  '#######'  #'      '#     #####' # '####'        



                  #######################################################
                  #                        -***-                        #
                  #          Department of theory and spectroscopy      #
                  #    Directorship and core code : Frank Neese         #
                  #        Max Planck Institute fuer Kohlenforschung    #
                  #                Kaiser Wilhelm Platz 1               #
                  #                 D-45470 Muelheim/Ruhr               #
                  #                      Germany                        #
                  #                                                     #
                  #                  All rights reserved                #
                  #                        -***-                        #
                  #######################################################


                         Program Version 5.0.3 -  RELEASE  -


 With contributions from (in alphabetic order):
   Daniel Aravena         : Magnetic Suceptibility
   Michael Atanasov       : Ab Initio Ligand Field Theory (pilot matlab implementation)
   Alexander A. Auer      : GIAO ZORA, VPT2 properties, NMR spectrum
   Ute Becker             : Parallelization
   Giovanni Bistoni       : ED, misc. LED, open-shell LED, HFLD
   Martin Brehm           : Molecular dynamics
   Dmytro Bykov           : SCF Hessian
   Vijay G. Chilkuri      : MRCI spin determinant printing, contributions to CSF-ICE
   Dipayan Datta          : RHF DLPNO-CCSD density
   Achintya Kumar Dutta   : EOM-CC, STEOM-CC
   Dmitry Ganyushin       : Spin-Orbit,Spin-Spin,Magnetic field MRCI
   Miquel Garcia          : C-PCM and meta-GGA Hessian, CC/C-PCM, Gaussian charge scheme
   Yang Guo               : DLPNO-NEVPT2, F12-NEVPT2, CIM, IAO-localization
   Andreas Hansen         : Spin unrestricted coupled pair/coupled cluster methods
   Benjamin Helmich-Paris : MC-RPA, TRAH-SCF, COSX integrals
   Lee Huntington         : MR-EOM, pCC
   Robert Izsak           : Overlap fitted RIJCOSX, COSX-SCS-MP3, EOM
   Marcus Kettner         : VPT2
   Christian Kollmar      : KDIIS, OOCD, Brueckner-CCSD(T), CCSD density, CASPT2, CASPT2-K
   Simone Kossmann        : Meta GGA functionals, TD-DFT gradient, OOMP2, MP2 Hessian
   Martin Krupicka        : Initial AUTO-CI
   Lucas Lang             : DCDCAS
   Marvin Lechner         : AUTO-CI (C++ implementation), FIC-MRCC
   Dagmar Lenk            : GEPOL surface, SMD
   Dimitrios Liakos       : Extrapolation schemes; Compound Job, initial MDCI parallelization
   Dimitrios Manganas     : Further ROCIS development; embedding schemes
   Dimitrios Pantazis     : SARC Basis sets
   Anastasios Papadopoulos: AUTO-CI, single reference methods and gradients
   Taras Petrenko         : DFT Hessian,TD-DFT gradient, ASA, ECA, R-Raman, ABS, FL, XAS/XES, NRVS
   Peter Pinski           : DLPNO-MP2, DLPNO-MP2 Gradient
   Christoph Reimann      : Effective Core Potentials
   Marius Retegan         : Local ZFS, SOC
   Christoph Riplinger    : Optimizer, TS searches, QM/MM, DLPNO-CCSD(T), (RO)-DLPNO pert. Triples
   Tobias Risthaus        : Range-separated hybrids, TD-DFT gradient, RPA, STAB
   Michael Roemelt        : Original ROCIS implementation
   Masaaki Saitow         : Open-shell DLPNO-CCSD energy and density
   Barbara Sandhoefer     : DKH picture change effects
   Avijit Sen             : IP-ROCIS
   Kantharuban Sivalingam : CASSCF convergence, NEVPT2, FIC-MRCI
   Bernardo de Souza      : ESD, SOC TD-DFT
   Georgi Stoychev        : AutoAux, RI-MP2 NMR, DLPNO-MP2 response
   Willem Van den Heuvel  : Paramagnetic NMR
   Boris Wezisla          : Elementary symmetry handling
   Frank Wennmohs         : Technical directorship


 We gratefully acknowledge several colleagues who have allowed us to
 interface, adapt or use parts of their codes:
   Stefan Grimme, W. Hujo, H. Kruse, P. Pracht,  : VdW corrections, initial TS optimization,
                  C. Bannwarth, S. Ehlert          DFT functionals, gCP, sTDA/sTD-DF
   Ed Valeev, F. Pavosevic, A. Kumar             : LibInt (2-el integral package), F12 methods
   Garnet Chan, S. Sharma, J. Yang, R. Olivares  : DMRG
   Ulf Ekstrom                                   : XCFun DFT Library
   Mihaly Kallay                                 : mrcc  (arbitrary order and MRCC methods)
   Jiri Pittner, Ondrej Demel                    : Mk-CCSD
   Frank Weinhold                                : gennbo (NPA and NBO analysis)
   Christopher J. Cramer and Donald G. Truhlar   : smd solvation model
   Lars Goerigk                                  : TD-DFT with DH, B97 family of functionals
   V. Asgeirsson, H. Jonsson                     : NEB implementation
   FAccTs GmbH                                   : IRC, NEB, NEB-TS, DLPNO-Multilevel, CI-OPT
                                                   MM, QMMM, 2- and 3-layer-ONIOM, Crystal-QMMM,
                                                   LR-CPCM, SF, NACMEs, symmetry and pop. for TD-DFT,
                                                   nearIR, NL-DFT gradient (VV10), updates on ESD,
                                                   ML-optimized integration grids
   S Lehtola, MJT Oliveira, MAL Marques          : LibXC Library
   Liviu Ungur et al                             : ANISO software


 Your calculation uses the libint2 library for the computation of 2-el integrals
 For citations please refer to: http://libint.valeyev.net

 Your ORCA version has been built with support for libXC version: 5.1.0
 For citations please refer to: https://tddft.org/programs/libxc/

 This ORCA versions uses:
   CBLAS   interface :  Fast vector & matrix operations
   LAPACKE interface :  Fast linear algebra routines
   SCALAPACK package :  Parallel linear algebra routines
   Shared memory     :  Shared parallel matrices
   BLAS/LAPACK       :  OpenBLAS 0.3.15  USE64BITINT DYNAMIC_ARCH NO_AFFINITY Haswell SINGLE_THREADED
        Core in use  :  Haswell
   Copyright (c) 2011-2014, The OpenBLAS Project




***************************************
The coordinates will be read from file: allene.xyz
***************************************


Your calculation utilizes the geometrical counterpoise correction gCP
Please cite in your paper:
H.Kruse, S. Grimme J.Chem.Phys., 136, (2012), 154101 
   

Your calculation utilizes the atom-pairwise dispersion correction
with the Becke-Johnson damping scheme (D3BJ)
Cite in your paper:
S.Grimme, S.Ehrlich, L.Goerigk, J Comput Chem, (2011), 32, 1456–1465 
S.Grimme, J.Antony, S.Ehrlich and H.Krieg, J.Chem.Phys., 132, (2010), 154104 
   

Your calculation employs the composite approach PBEh-3c.
Please cite in your paper:
S. Grimme, J. G. Brandenburg, C. Bannwarth, A. Hansen J.Chem.Phys., 143, (2015), 054107 
   

================================================================================

----- Orbital basis set information -----
Your calculation utilizes the basis: def2-mSVP

----- AuxJ basis set information -----
Your calculation utilizes the auxiliary basis: def2/J
   F. Weigend, Phys. Chem. Chem. Phys. 8, 1057 (2006).

================================================================================
                                        WARNINGS
                       Please study these warnings very carefully!
================================================================================


INFO   : the flag for use of the SHARK integral package has been found!

================================================================================
                                       INPUT FILE
================================================================================
NAME = pbeh-3c.inp
|  1> ! PBEh-3c def2/J TightSCF DefGrid3
|  2> 
|  3> %maxcore 60000
|  4> 
|  5> %pal
|  6> nprocs 4
|  7> end
|  8> 
|  9> *xyzfile 0 1 allene.xyz
| 10> 
| 11>                          ****END OF INPUT****
================================================================================

                       ****************************
                       * Single Point Calculation *
                       ****************************

---------------------------------
CARTESIAN COORDINATES (ANGSTROEM)
---------------------------------
  C      0.000000    0.000000    0.000000
  C      1.310515    0.000000    0.000000
  C     -1.310515    0.000000    0.000000
  H     -1.866060    0.790270    0.488418
  H     -1.866060   -0.790270   -0.488418
  H      1.866060    0.488418   -0.790270
  H      1.866060   -0.488418    0.790270

----------------------------
CARTESIAN COORDINATES (A.U.)
----------------------------
  NO LB      ZA    FRAG     MASS         X           Y           Z
   0 C     6.0000    0    12.011    0.000000    0.000000    0.000000
   1 C     6.0000    0    12.011    2.476514    0.000000    0.000000
   2 C     6.0000    0    12.011   -2.476514    0.000000    0.000000
   3 H     1.0000    0     1.008   -3.526342    1.493393    0.922975
   4 H     1.0000    0     1.008   -3.526342   -1.493393   -0.922975
   5 H     1.0000    0     1.008    3.526342    0.922975   -1.493393
   6 H     1.0000    0     1.008    3.526342   -0.922975    1.493393

--------------------------------
INTERNAL COORDINATES (ANGSTROEM)
--------------------------------
 C      0   0   0     0.000000000000     0.00000000     0.00000000
 C      1   0   0     1.310514900000     0.00000000     0.00000000
 C      1   2   0     1.310514900000   180.00000000     0.00000000
 H      3   1   2     1.082454737217   120.87901883     0.00000000
 H      3   1   2     1.082454737217   120.87901883     0.00000000
 H      2   1   3     1.082454737217   120.87901883     0.00000000
 H      2   1   3     1.082454737217   120.87901883     0.00000000

---------------------------
INTERNAL COORDINATES (A.U.)
---------------------------
 C      0   0   0     0.000000000000     0.00000000     0.00000000
 C      1   0   0     2.476514255423     0.00000000     0.00000000
 C      1   2   0     2.476514255423   180.00000000     0.00000000
 H      3   1   2     2.045543005706   120.87901883     0.00000000
 H      3   1   2     2.045543005706   120.87901883     0.00000000
 H      2   1   3     2.045543005706   120.87901883     0.00000000
 H      2   1   3     2.045543005706   120.87901883     0.00000000

---------------------
BASIS SET INFORMATION
---------------------
There are 2 groups of distinct atoms

 Group   1 Type C   : 8s4p1d contracted to 4s2p1d pattern {5111/31/1}
 Group   2 Type H   : 4s contracted to 2s pattern {31}

Atom   0C    basis set group =>   1
Atom   1C    basis set group =>   1
Atom   2C    basis set group =>   1
Atom   3H    basis set group =>   2
Atom   4H    basis set group =>   2
Atom   5H    basis set group =>   2
Atom   6H    basis set group =>   2
---------------------------------
AUXILIARY/J BASIS SET INFORMATION
---------------------------------
There are 2 groups of distinct atoms

 Group   1 Type C   : 12s5p4d2f1g contracted to 6s4p3d1f1g pattern {711111/2111/211/2/1}
 Group   2 Type H   : 5s2p1d contracted to 3s1p1d pattern {311/2/1}

Atom   0C    basis set group =>   1
Atom   1C    basis set group =>   1
Atom   2C    basis set group =>   1
Atom   3H    basis set group =>   2
Atom   4H    basis set group =>   2
Atom   5H    basis set group =>   2
Atom   6H    basis set group =>   2


           ************************************************************
           *        Program running with 4 parallel MPI-processes     *
           *              working on a common directory               *
           ************************************************************
------------------------------------------------------------------------------
                           ORCA GTO INTEGRAL CALCULATION
                           -- RI-GTO INTEGRALS CHOSEN --
------------------------------------------------------------------------------
------------------------------------------------------------------------------
                   ___                                                        
                  /   \      - P O W E R E D   B Y -                         
                 /     \                                                     
                 |  |  |   _    _      __       _____    __    __             
                 |  |  |  | |  | |    /  \     |  _  \  |  |  /  |          
                  \  \/   | |  | |   /    \    | | | |  |  | /  /          
                 / \  \   | |__| |  /  /\  \   | |_| |  |  |/  /          
                |  |  |   |  __  | /  /__\  \  |    /   |      \           
                |  |  |   | |  | | |   __   |  |    \   |  |\   \          
                \     /   | |  | | |  |  |  |  | |\  \  |  | \   \       
                 \___/    |_|  |_| |__|  |__|  |_| \__\ |__|  \__/        
                                                                              
                      - O R C A' S   B I G   F R I E N D -                    
                                      &                                       
                       - I N T E G R A L  F E E D E R -                       
                                                                              
 v1 FN, 2020, v2 2021                                                         
------------------------------------------------------------------------------


Reading SHARK input file pbeh-3c.SHARKINP.tmp ... ok
----------------------
SHARK INTEGRAL PACKAGE
----------------------

Number of atoms                             ...      7
Number of basis functions                   ...     53
Number of shells                            ...     29
Maximum angular momentum                    ...      2
Integral batch strategy                     ... SHARK/LIBINT Hybrid
RI-J (if used) integral strategy            ... SPLIT-RIJ (Revised 2003 algorithm where possible)
Printlevel                                  ...      1
Contraction scheme used                     ... SEGMENTED contraction
Coulomb Range Separation                    ... NOT USED
Exchange Range Separation                   ... NOT USED
Finite Nucleus Model                        ... NOT USED
Auxiliary Coulomb fitting basis             ... AVAILABLE
   # of basis functions in Aux-J            ...    191
   # of shells in Aux-J                     ...     65
   Maximum angular momentum in Aux-J        ...      4
Auxiliary J/K fitting basis                 ... NOT available
Auxiliary Correlation fitting basis         ... NOT available
Auxiliary 'external' fitting basis          ... NOT available
Integral threshold                          ...     2.500000e-11
Primitive cut-off                           ...     2.500000e-12
Primitive pair pre-selection threshold      ...     2.500000e-12

Calculating pre-screening integrals         ... done (  0.1 sec) Dimension = 29
Organizing shell pair data                  ... done (  0.0 sec)
Shell pair information
Total number of shell pairs                 ...       435
Shell pairs after pre-screening             ...       429
Total number of primitive shell pairs       ...      1591
Primitive shell pairs kept                  ...      1276
          la=0 lb=0:    204 shell pairs
          la=1 lb=0:    120 shell pairs
          la=1 lb=1:     21 shell pairs
          la=2 lb=0:     60 shell pairs
          la=2 lb=1:     18 shell pairs
          la=2 lb=2:      6 shell pairs

Calculating one electron integrals          ... done (  0.0 sec)
Calculating RI/J V-Matrix + Cholesky decomp.... done (  0.2 sec)
Calculating Nuclear repulsion               ... done (  0.0 sec) ENN=     59.108795490282 Eh

SHARK setup successfully completed in   0.9 seconds

Maximum memory used throughout the entire GTOINT-calculation: 9.1 MB


           ************************************************************
           *        Program running with 4 parallel MPI-processes     *
           *              working on a common directory               *
           ************************************************************
-------------------------------------------------------------------------------
                                 ORCA SCF
-------------------------------------------------------------------------------

------------
SCF SETTINGS
------------
Hamiltonian:
 Density Functional     Method          .... DFT(GTOs)
 Exchange Functional    Exchange        .... PBE
   PBE kappa parameter   XKappa         ....  1.024500
   PBE mue parameter    XMuePBE         ....  0.123457
 Correlation Functional Correlation     .... PBE
   PBE beta parameter  CBetaPBE         ....  0.030000
 LDA part of GGA corr.  LDAOpt          .... PW91-LDA
 Gradients option       PostSCFGGA      .... off
 Hybrid DFT is turned on
   Fraction HF Exchange ScalHFX         ....  0.420000
   Scaling of DF-GGA-X  ScalDFX         ....  0.580000
   Scaling of DF-GGA-C  ScalDFC         ....  1.000000
   Scaling of DF-LDA-C  ScalLDAC        ....  1.000000
   Perturbative correction              ....  0.000000
   Density functional embedding theory  .... OFF
 RI-approximation to the Coulomb term is turned on
   Number of AuxJ basis functions       .... 191
   RIJ-ON(X) (HFX calculated with O(N)) .... on
   Number of AuxJ basis functions       .... 191
   RIJ-COSX (HFX calculated with COS-X)).... on


General Settings:
 Integral files         IntName         .... pbeh-3c
 Hartree-Fock type      HFTyp           .... RHF
 Total Charge           Charge          ....    0
 Multiplicity           Mult            ....    1
 Number of Electrons    NEL             ....   22
 Basis Dimension        Dim             ....   53
 Nuclear Repulsion      ENuc            ....     59.1087954903 Eh

Convergence Acceleration:
 DIIS                   CNVDIIS         .... on
   Start iteration      DIISMaxIt       ....    12
   Startup error        DIISStart       ....  0.200000
   # of expansion vecs  DIISMaxEq       ....     5
   Bias factor          DIISBfac        ....   1.050
   Max. coefficient     DIISMaxC        ....  10.000
 Trust-Rad. Augm. Hess. CNVTRAH         .... auto
   Auto Start mean grad. ratio tolernc. ....  1.125000
   Auto Start start iteration           ....    20
   Auto Start num. interpolation iter.  ....    10
   Max. Number of Micro iterations      ....    16
   Max. Number of Macro iterations      .... Maxiter - #DIIS iter
   Number of Davidson start vectors     ....     2
   Converg. threshold I  (grad. norm)   ....   1.000e-05
   Converg. threshold II (energy diff.) ....   1.000e-08
   Grad. Scal. Fac. for Micro threshold ....   0.100
   Minimum threshold for Micro iter.    ....   0.010
   NR start threshold (gradient norm)   ....   0.001
   Initial trust radius                 ....   0.400
   Minimum AH scaling param. (alpha)    ....   1.000
   Maximum AH scaling param. (alpha)    .... 1000.000
   Orbital update algorithm             .... Taylor
   White noise on init. David. guess    .... on
   Maximum white noise                  ....   0.010
   Quad. conv. algorithm                .... NR
   COSX micro iterations for RIJONX calc.... off
 SOSCF                  CNVSOSCF        .... on
   Start iteration      SOSCFMaxIt      ....   150
   Startup grad/error   SOSCFStart      ....  0.003300
 Level Shifting         CNVShift        .... on
   Level shift para.    LevelShift      ....    0.2500
   Turn off err/grad.   ShiftErr        ....    0.0010
 Zerner damping         CNVZerner       .... off
 Static damping         CNVDamp         .... on
   Fraction old density DampFac         ....    0.7000
   Max. Damping (<1)    DampMax         ....    0.9800
   Min. Damping (>=0)   DampMin         ....    0.0000
   Turn off err/grad.   DampErr         ....    0.1000
 Fernandez-Rico         CNVRico         .... off

SCF Procedure:
 Maximum # iterations   MaxIter         ....   125
 SCF integral mode      SCFMode         .... Direct
   Integral package                     .... SHARK and LIBINT hybrid scheme
 Reset frequency        DirectResetFreq ....    20
 Integral Threshold     Thresh          ....  2.500e-11 Eh
 Primitive CutOff       TCut            ....  2.500e-12 Eh

Convergence Tolerance:
 Convergence Check Mode ConvCheckMode   .... Total+1el-Energy
 Convergence forced     ConvForced      .... 0
 Energy Change          TolE            ....  1.000e-08 Eh
 1-El. energy change                    ....  1.000e-05 Eh
 Orbital Gradient       TolG            ....  1.000e-05
 Orbital Rotation angle TolX            ....  1.000e-05
 DIIS Error             TolErr          ....  5.000e-07


Diagonalization of the overlap matrix:
Smallest eigenvalue                        ... 1.588e-03
Time for diagonalization                   ...    0.002 sec
Threshold for overlap eigenvalues          ... 1.000e-08
Number of eigenvalues below threshold      ... 0
Time for construction of square roots      ...    0.036 sec
Total time needed                          ...    0.038 sec

--------------------------------
INITIAL GUESS: MINIMAL BASIS EHT
--------------------------------
The minimal basis has 19 functions
EHT matrix was diagonalized
Basis set overlap was calculated now projecting the orbitals
Using GuessMode=FMatrix for the initial guess
C*T matrix was formed
Effective Fockian was calculated
Effective Fockian was diagonalized
Initial density was built
                      ------------------
                      INITIAL GUESS DONE
                      ------------------
-------------------
DFT GRID GENERATION
-------------------

General Integration Accuracy     IntAcc      ... 4.959
Radial Grid Type                 RadialGrid  ... OptM3 with GC (2021)
Angular Grid (max. ang.)         AngularGrid ... 6 (Lebedev-590)
Angular grid pruning method      GridPruning ... 4 (adaptive)
Weight generation scheme         WeightScheme... Becke
Basis function cutoff            BFCut       ... 1.0000e-11
Integration weight cutoff        WCut        ... 1.0000e-14
Angular grids for H and He will be reduced by one unit
Partially contracted basis set               ... off
Rotationally invariant grid construction     ... off

Total number of grid points                  ...    79294
Total number of batches                      ...     1243
Average number of points per batch           ...       63
Average number of grid points per atom       ...    11328
Time for grid setup =    1.213 sec

--------------------
COSX GRID GENERATION
--------------------

GRIDX 1
-------
General Integration Accuracy     IntAcc      ... 4.020
Radial Grid Type                 RadialGrid  ... OptM3 with GC (2021)
Angular Grid (max. ang.)         AngularGrid ... 2 (Lebedev-110)
Angular grid pruning method      GridPruning ... 4 (adaptive)
Weight generation scheme         WeightScheme... Becke
Basis function cutoff            BFCut       ... 1.0000e-11
Integration weight cutoff        WCut        ... 1.0000e-14
Angular grids for H and He will be reduced by one unit
Partially contracted basis set               ... on
Rotationally invariant grid construction     ... off

Total number of grid points                  ...     8736
Total number of batches                      ...      140
Average number of points per batch           ...       62
Average number of grid points per atom       ...     1248
UseSFitting                                  ... on

GRIDX 2
-------
General Integration Accuracy     IntAcc      ... 4.338
Radial Grid Type                 RadialGrid  ... OptM3 with GC (2021)
Angular Grid (max. ang.)         AngularGrid ... 3 (Lebedev-194)
Angular grid pruning method      GridPruning ... 4 (adaptive)
Weight generation scheme         WeightScheme... Becke
Basis function cutoff            BFCut       ... 1.0000e-11
Integration weight cutoff        WCut        ... 1.0000e-14
Angular grids for H and He will be reduced by one unit
Partially contracted basis set               ... on
Rotationally invariant grid construction     ... off

Total number of grid points                  ...    19280
Total number of batches                      ...      304
Average number of points per batch           ...       63
Average number of grid points per atom       ...     2754
UseSFitting                                  ... on

GRIDX 3
-------
General Integration Accuracy     IntAcc      ... 4.871
Radial Grid Type                 RadialGrid  ... OptM3 with GC (2021)
Angular Grid (max. ang.)         AngularGrid ... 4 (Lebedev-302)
Angular grid pruning method      GridPruning ... 4 (adaptive)
Weight generation scheme         WeightScheme... Becke
Basis function cutoff            BFCut       ... 1.0000e-11
Integration weight cutoff        WCut        ... 1.0000e-14
Angular grids for H and He will be reduced by one unit
Partially contracted basis set               ... on
Rotationally invariant grid construction     ... off

Total number of grid points                  ...    37808
Total number of batches                      ...      594
Average number of points per batch           ...       63
Average number of grid points per atom       ...     5401
UseSFitting                                  ... on

Time for X-Grid setup             =    1.190 sec

--------------
SCF ITERATIONS
--------------
ITER       Energy         Delta-E        Max-DP      RMS-DP      [F,P]     Damp
               ***  Starting incremental Fock matrix formation  ***
  0   -116.0563700240   0.000000000000 0.11823739  0.00708226  0.4228339 0.7000
  1   -116.1510437879  -0.094673763931 0.08320128  0.00510645  0.2976808 0.7000
  2   -116.2196230470  -0.068579259061 0.05804414  0.00371118  0.2084871 0.7000
                               ***Turning on DIIS***
  3   -116.2688643614  -0.049241314427 0.04108699  0.00270810  0.1461853 0.7000
  4   -116.3040516812  -0.035187319813 0.03282605  0.00208954  0.1026011 0.7000
  5   -116.3291097058  -0.025058024579 0.08163587  0.00513929  0.0719657 0.0000
                      *** Initiating the SOSCF procedure ***
                           *** Shutting down DIIS ***
                      *** Re-Reading the Fockian *** 
                      *** Removing any level shift *** 
ITER      Energy       Delta-E        Grad      Rot      Max-DP    RMS-DP
  6   -116.38929501  -0.0601853017  0.001472  0.001472  0.002387  0.000170
               *** Restarting incremental Fock matrix formation ***
  7   -116.38933676  -0.0000417483  0.000579  0.000694  0.000926  0.000081
  8   -116.38934208  -0.0000053283  0.000109  0.000373  0.000516  0.000032
  9   -116.38934214  -0.0000000564  0.000135  0.000157  0.000229  0.000014
 10   -116.38934241  -0.0000002726  0.000009  0.000013  0.000021  0.000002
                  ***Gradient check signals convergence***
              ***Rediagonalizing the Fockian in SOSCF/NRSCF***

               *****************************************************
               *                     SUCCESS                       *
               *           SCF CONVERGED AFTER  11 CYCLES          *
               *****************************************************

Old exchange energy                            =     -7.083203839 Eh
New exchange energy                            =     -7.083204839 Eh
Exchange energy change after final integration =     -0.000001000 Eh
Total energy after final integration           =   -116.389343415 Eh
Final COS-X integration done in                =     0.457 sec

----------------
TOTAL SCF ENERGY
----------------

Total Energy       :         -116.38934341 Eh           -3167.11505 eV

Components:
Nuclear Repulsion  :           59.10879549 Eh            1608.43210 eV
Electronic Energy  :         -175.49813890 Eh           -4775.54714 eV
One Electron Energy:         -272.12257743 Eh           -7404.83179 eV
Two Electron Energy:           96.62443853 Eh            2629.28464 eV
Max COSX asymmetry :            0.00000048 Eh               0.00001 eV

Virial components:
Potential Energy   :         -231.77905228 Eh           -6307.02866 eV
Kinetic Energy     :          115.38970886 Eh            3139.91361 eV
Virial Ratio       :            2.00866312


DFT components:
N(Alpha)           :       11.000000068161 electrons
N(Beta)            :       11.000000068161 electrons
N(Total)           :       22.000000136321 electrons
E(X)               :       -9.402705985302 Eh       
E(C)               :       -0.917707409847 Eh       
E(XC)              :      -10.320413395149 Eh       
DFET-embed. en.    :        0.000000000000 Eh       

---------------
SCF CONVERGENCE
---------------

  Last Energy change         ...   -1.7015e-09  Tolerance :   1.0000e-08
  Last MAX-Density change    ...    1.1102e-15  Tolerance :   1.0000e-07
  Last RMS-Density change    ...    6.1370e-17  Tolerance :   5.0000e-09
  Last Orbital Gradient      ...    1.9757e-06  Tolerance :   1.0000e-05
  Last Orbital Rotation      ...    2.5443e-06  Tolerance :   1.0000e-05

             **** THE GBW FILE WAS UPDATED (pbeh-3c.gbw) ****
             **** DENSITY pbeh-3c.scfp WAS UPDATED ****
             **** ENERGY FILE WAS UPDATED (pbeh-3c.en.tmp) ****
             **** THE GBW FILE WAS UPDATED (pbeh-3c.gbw) ****
             **** DENSITY pbeh-3c.scfp WAS UPDATED ****
----------------
ORBITAL ENERGIES
----------------

  NO   OCC          E(Eh)            E(eV) 
   0   2.0000     -10.474624      -285.0290 
   1   2.0000     -10.449580      -284.3475 
   2   2.0000     -10.449491      -284.3451 
   3   2.0000      -0.883961       -24.0538 
   4   2.0000      -0.789577       -21.4855 
   5   2.0000      -0.590275       -16.0622 
   6   2.0000      -0.513309       -13.9679 
   7   2.0000      -0.505091       -13.7442 
   8   2.0000      -0.505091       -13.7442 
   9   2.0000      -0.313356        -8.5269 
  10   2.0000      -0.313356        -8.5269 
  11   0.0000       0.042096         1.1455 
  12   0.0000       0.042096         1.1455 
  13   0.0000       0.177396         4.8272 
  14   0.0000       0.191504         5.2111 
  15   0.0000       0.281231         7.6527 
  16   0.0000       0.281231         7.6527 
  17   0.0000       0.294102         8.0029 
  18   0.0000       0.305716         8.3190 
  19   0.0000       0.441664        12.0183 
  20   0.0000       0.520788        14.1714 
  21   0.0000       0.520789        14.1714 
  22   0.0000       0.619081        16.8461 
  23   0.0000       0.644204        17.5297 
  24   0.0000       0.644204        17.5297 
  25   0.0000       0.694869        18.9083 
  26   0.0000       0.782892        21.3036 
  27   0.0000       0.782892        21.3036 
  28   0.0000       1.013457        27.5776 
  29   0.0000       1.013457        27.5776 
  30   0.0000       1.016581        27.6626 
  31   0.0000       1.042178        28.3591 
  32   0.0000       1.087304        29.5870 
  33   0.0000       1.191133        32.4124 
  34   0.0000       1.338169        36.4134 
  35   0.0000       1.538350        41.8606 
  36   0.0000       1.647363        44.8270 
  37   0.0000       1.647363        44.8270 
  38   0.0000       1.689265        45.9672 
  39   0.0000       1.720961        46.8297 
  40   0.0000       1.986550        54.0568 
  41   0.0000       2.137277        58.1583 
  42   0.0000       2.165128        58.9161 
  43   0.0000       2.175588        59.2008 
  44   0.0000       2.175588        59.2008 
  45   0.0000       2.398660        65.2709 
  46   0.0000       2.511660        68.3457 
  47   0.0000       2.890741        78.6611 
  48   0.0000       2.890741        78.6611 
  49   0.0000       3.341267        90.9205 
  50   0.0000      13.266790       361.0077 
  51   0.0000      13.800912       375.5419 
  52   0.0000      14.507368       394.7656 

                    ********************************
                    * MULLIKEN POPULATION ANALYSIS *
                    ********************************

-----------------------
MULLIKEN ATOMIC CHARGES
-----------------------
   0 C :    0.313431
   1 C :   -0.637815
   2 C :   -0.637816
   3 H :    0.240550
   4 H :    0.240550
   5 H :    0.240550
   6 H :    0.240550
Sum of atomic charges:   -0.0000000

--------------------------------
MULLIKEN REDUCED ORBITAL CHARGES
--------------------------------
  0 C s       :     3.146431  s :     3.146431
      pz      :     0.906394  p :     2.503857
      px      :     0.691070
      py      :     0.906394
      dz2     :     0.002080  d :     0.036281
      dxz     :     0.013977
      dyz     :     0.000011
      dx2y2   :     0.006235
      dxy     :     0.013977
  1 C s       :     3.386907  s :     3.386907
      pz      :     1.117112  p :     3.217595
      px      :     0.997662
      py      :     1.102822
      dz2     :     0.003514  d :     0.033313
      dxz     :     0.011793
      dyz     :     0.004443
      dx2y2   :     0.005163
      dxy     :     0.008400
  2 C s       :     3.386907  s :     3.386907
      pz      :     1.102822  p :     3.217595
      px      :     0.997661
      py      :     1.117112
      dz2     :     0.001935  d :     0.033313
      dxz     :     0.008400
      dyz     :     0.004443
      dx2y2   :     0.006743
      dxy     :     0.011793
  3 H s       :     0.759450  s :     0.759450
  4 H s       :     0.759450  s :     0.759450
  5 H s       :     0.759450  s :     0.759450
  6 H s       :     0.759450  s :     0.759450


                     *******************************
                     * LOEWDIN POPULATION ANALYSIS *
                     *******************************

----------------------
LOEWDIN ATOMIC CHARGES
----------------------
   0 C :    0.014380
   1 C :   -0.314063
   2 C :   -0.314063
   3 H :    0.153436
   4 H :    0.153436
   5 H :    0.153436
   6 H :    0.153436

-------------------------------
LOEWDIN REDUCED ORBITAL CHARGES
-------------------------------
  0 C s       :     2.923677  s :     2.923677
      pz      :     0.910218  p :     2.977834
      px      :     1.157399
      py      :     0.910218
      dz2     :     0.005690  d :     0.084110
      dxz     :     0.030673
      dyz     :     0.000012
      dx2y2   :     0.017063
      dxy     :     0.030673
  1 C s       :     2.951178  s :     2.951178
      pz      :     1.098609  p :     3.296352
      px      :     1.106878
      py      :     1.090866
      dz2     :     0.008014  d :     0.066532
      dxz     :     0.023890
      dyz     :     0.005577
      dx2y2   :     0.013791
      dxy     :     0.015260
  2 C s       :     2.951178  s :     2.951178
      pz      :     1.090866  p :     3.296352
      px      :     1.106878
      py      :     1.098609
      dz2     :     0.004282  d :     0.066532
      dxz     :     0.015260
      dyz     :     0.005577
      dx2y2   :     0.017523
      dxy     :     0.023890
  3 H s       :     0.846564  s :     0.846564
  4 H s       :     0.846564  s :     0.846564
  5 H s       :     0.846564  s :     0.846564
  6 H s       :     0.846564  s :     0.846564


                      *****************************
                      * MAYER POPULATION ANALYSIS *
                      *****************************

  NA   - Mulliken gross atomic population
  ZA   - Total nuclear charge
  QA   - Mulliken gross atomic charge
  VA   - Mayer's total valence
  BVA  - Mayer's bonded valence
  FA   - Mayer's free valence

  ATOM       NA         ZA         QA         VA         BVA        FA
  0 C      5.6866     6.0000     0.3134     3.7308     3.7308    -0.0000
  1 C      6.6378     6.0000    -0.6378     3.7267     3.7267    -0.0000
  2 C      6.6378     6.0000    -0.6378     3.7267     3.7267    -0.0000
  3 H      0.7595     1.0000     0.2405     0.9127     0.9127    -0.0000
  4 H      0.7595     1.0000     0.2405     0.9127     0.9127    -0.0000
  5 H      0.7595     1.0000     0.2405     0.9127     0.9127     0.0000
  6 H      0.7595     1.0000     0.2405     0.9127     0.9127    -0.0000

  Mayer bond orders larger than 0.100000
B(  0-C ,  1-C ) :   1.8971 B(  0-C ,  2-C ) :   1.8971 B(  1-C ,  5-H ) :   0.9075 
B(  1-C ,  6-H ) :   0.9075 B(  2-C ,  3-H ) :   0.9075 B(  2-C ,  4-H ) :   0.9075 


-------
TIMINGS
-------

Total SCF time: 0 days 0 hours 0 min 19 sec 

Total time                  ....      19.784 sec
Sum of individual times     ....      18.376 sec  ( 92.9%)

Fock matrix formation       ....      15.032 sec  ( 76.0%)
  Split-RI-J                ....       2.026 sec  ( 13.5% of F)
  Chain of spheres X        ....       3.993 sec  ( 26.6% of F)
  XC integration            ....       3.970 sec  ( 26.4% of F)
    Basis function eval.    ....       0.592 sec  ( 14.9% of XC)
    Density eval.           ....       0.340 sec  (  8.6% of XC)
    XC-Functional eval.     ....       0.519 sec  ( 13.1% of XC)
    XC-Potential eval.      ....       0.209 sec  (  5.3% of XC)
Diagonalization             ....       0.130 sec  (  0.7%)
Density matrix formation    ....       0.064 sec  (  0.3%)
Population analysis         ....       0.207 sec  (  1.0%)
Initial guess               ....       0.004 sec  (  0.0%)
Orbital Transformation      ....       0.000 sec  (  0.0%)
Orbital Orthonormalization  ....       0.000 sec  (  0.0%)
DIIS solution               ....       0.341 sec  (  1.7%)
SOSCF solution              ....       0.193 sec  (  1.0%)
Grid generation             ....       2.403 sec  ( 12.1%)

Maximum memory used throughout the entire SCF-calculation: 45.9 MB


-------------------------------------------------------------------------------
                          DFT DISPERSION CORRECTION                            
                                                                               
                              DFTD3 V3.1  Rev 1                                
                          USING Becke-Johnson damping                          
-------------------------------------------------------------------------------
The PBEh-3c composite method is recognized
Using three-body term ABC
Active option DFTDOPT                   ...         4   

molecular C6(AA) [au] = 509.907468 


            DFT-D V3
 parameters
 s6 scaling factor         :     1.0000 
 a1 scaling factor         :     0.4860 
 s8 scaling factor         :     0.0000 
 a2 scaling factor         :     4.5000 
 Damping factor alpha9(ATM):    16.0000 
 ad hoc parameters k1-k3   :    16.0000     1.3333    -4.0000 

 Edisp/kcal,au: -1.179389403689  -0.001879476449 
 E6   /kcal   :  -1.179900143 
 E8   /kcal   :  -0.000000000 
 E6(ABC)      :   0.000510740 
 % E8         :   0.000000000 
 % E6(ABC)    :  -0.043305431 

-------------------------   ----------------
Dispersion correction           -0.001879476
-------------------------   ----------------

------------------   -----------------
gCP correction             0.005494868
------------------   -----------------

-------------------------   --------------------
FINAL SINGLE POINT ENERGY      -116.385728023420
-------------------------   --------------------


                            ***************************************
                            *     ORCA property calculations      *
                            ***************************************

                                    ---------------------
                                    Active property flags
                                    ---------------------
   (+) Dipole Moment


------------------------------------------------------------------------------
                       ORCA ELECTRIC PROPERTIES CALCULATION
------------------------------------------------------------------------------

Dipole Moment Calculation                       ... on
Quadrupole Moment Calculation                   ... off
Polarizability Calculation                      ... off
GBWName                                         ... pbeh-3c.gbw
Electron density                                ... pbeh-3c.scfp
The origin for moment calculation is the CENTER OF MASS  = ( 0.000000,  0.000000  0.000000)

-------------
DIPOLE MOMENT
-------------
                                X             Y             Z
Electronic contribution:     -0.00000       0.00000       0.00000
Nuclear contribution   :      0.00000       0.00000       0.00000
                        -----------------------------------------
Total Dipole Moment    :     -0.00000       0.00000       0.00000
                        -----------------------------------------
Magnitude (a.u.)       :      0.00000
Magnitude (Debye)      :      0.00000



--------------------
Rotational spectrum 
--------------------
 
Rotational constants in cm-1:     4.844248     0.295558     0.295558 
Rotational constants in MHz : 145226.887080  8860.604726  8860.604726 

 Dipole components along the rotational axes: 
x,y,z [a.u.] :    -0.000000     0.000000     0.000000 
x,y,z [Debye]:    -0.000000     0.000000     0.000000 

 

Timings for individual modules:

Sum of individual times         ...       21.870 sec (=   0.364 min)
GTO integral calculation        ...        1.334 sec (=   0.022 min)   6.1 %
SCF iterations                  ...       20.536 sec (=   0.342 min)  93.9 %
                             ****ORCA TERMINATED NORMALLY****
TOTAL RUN TIME: 0 days 0 hours 0 minutes 22 seconds 911 msec
