
                                 *****************
                                 * O   R   C   A *
                                 *****************

                                            #,                                       
                                            ###                                      
                                            ####                                     
                                            #####                                    
                                            ######                                   
                                           ########,                                 
                                     ,,################,,,,,                         
                               ,,#################################,,                 
                          ,,##########################################,,             
                       ,#########################################, ''#####,          
                    ,#############################################,,   '####,        
                  ,##################################################,,,,####,       
                ,###########''''           ''''###############################       
              ,#####''   ,,,,##########,,,,          '''####'''          '####       
            ,##' ,,,,###########################,,,                        '##       
           ' ,,###''''                  '''############,,,                           
         ,,##''                                '''############,,,,        ,,,,,,###''
      ,#''                                            '''#######################'''  
     '                                                          ''''####''''         
             ,#######,   #######,   ,#######,      ##                                
            ,#'     '#,  ##    ##  ,#'     '#,    #''#        ######   ,####,        
            ##       ##  ##   ,#'  ##            #'  '#       #        #'  '#        
            ##       ##  #######   ##           ,######,      #####,   #    #        
            '#,     ,#'  ##    ##  '#,     ,#' ,#      #,         ##   #,  ,#        
             '#######'   ##     ##  '#######'  #'      '#     #####' # '####'        



                  #######################################################
                  #                        -***-                        #
                  #          Department of theory and spectroscopy      #
                  #    Directorship and core code : Frank Neese         #
                  #        Max Planck Institute fuer Kohlenforschung    #
                  #                Kaiser Wilhelm Platz 1               #
                  #                 D-45470 Muelheim/Ruhr               #
                  #                      Germany                        #
                  #                                                     #
                  #                  All rights reserved                #
                  #                        -***-                        #
                  #######################################################


                         Program Version 5.0.3 -  RELEASE  -


 With contributions from (in alphabetic order):
   Daniel Aravena         : Magnetic Suceptibility
   Michael Atanasov       : Ab Initio Ligand Field Theory (pilot matlab implementation)
   Alexander A. Auer      : GIAO ZORA, VPT2 properties, NMR spectrum
   Ute Becker             : Parallelization
   Giovanni Bistoni       : ED, misc. LED, open-shell LED, HFLD
   Martin Brehm           : Molecular dynamics
   Dmytro Bykov           : SCF Hessian
   Vijay G. Chilkuri      : MRCI spin determinant printing, contributions to CSF-ICE
   Dipayan Datta          : RHF DLPNO-CCSD density
   Achintya Kumar Dutta   : EOM-CC, STEOM-CC
   Dmitry Ganyushin       : Spin-Orbit,Spin-Spin,Magnetic field MRCI
   Miquel Garcia          : C-PCM and meta-GGA Hessian, CC/C-PCM, Gaussian charge scheme
   Yang Guo               : DLPNO-NEVPT2, F12-NEVPT2, CIM, IAO-localization
   Andreas Hansen         : Spin unrestricted coupled pair/coupled cluster methods
   Benjamin Helmich-Paris : MC-RPA, TRAH-SCF, COSX integrals
   Lee Huntington         : MR-EOM, pCC
   Robert Izsak           : Overlap fitted RIJCOSX, COSX-SCS-MP3, EOM
   Marcus Kettner         : VPT2
   Christian Kollmar      : KDIIS, OOCD, Brueckner-CCSD(T), CCSD density, CASPT2, CASPT2-K
   Simone Kossmann        : Meta GGA functionals, TD-DFT gradient, OOMP2, MP2 Hessian
   Martin Krupicka        : Initial AUTO-CI
   Lucas Lang             : DCDCAS
   Marvin Lechner         : AUTO-CI (C++ implementation), FIC-MRCC
   Dagmar Lenk            : GEPOL surface, SMD
   Dimitrios Liakos       : Extrapolation schemes; Compound Job, initial MDCI parallelization
   Dimitrios Manganas     : Further ROCIS development; embedding schemes
   Dimitrios Pantazis     : SARC Basis sets
   Anastasios Papadopoulos: AUTO-CI, single reference methods and gradients
   Taras Petrenko         : DFT Hessian,TD-DFT gradient, ASA, ECA, R-Raman, ABS, FL, XAS/XES, NRVS
   Peter Pinski           : DLPNO-MP2, DLPNO-MP2 Gradient
   Christoph Reimann      : Effective Core Potentials
   Marius Retegan         : Local ZFS, SOC
   Christoph Riplinger    : Optimizer, TS searches, QM/MM, DLPNO-CCSD(T), (RO)-DLPNO pert. Triples
   Tobias Risthaus        : Range-separated hybrids, TD-DFT gradient, RPA, STAB
   Michael Roemelt        : Original ROCIS implementation
   Masaaki Saitow         : Open-shell DLPNO-CCSD energy and density
   Barbara Sandhoefer     : DKH picture change effects
   Avijit Sen             : IP-ROCIS
   Kantharuban Sivalingam : CASSCF convergence, NEVPT2, FIC-MRCI
   Bernardo de Souza      : ESD, SOC TD-DFT
   Georgi Stoychev        : AutoAux, RI-MP2 NMR, DLPNO-MP2 response
   Willem Van den Heuvel  : Paramagnetic NMR
   Boris Wezisla          : Elementary symmetry handling
   Frank Wennmohs         : Technical directorship


 We gratefully acknowledge several colleagues who have allowed us to
 interface, adapt or use parts of their codes:
   Stefan Grimme, W. Hujo, H. Kruse, P. Pracht,  : VdW corrections, initial TS optimization,
                  C. Bannwarth, S. Ehlert          DFT functionals, gCP, sTDA/sTD-DF
   Ed Valeev, F. Pavosevic, A. Kumar             : LibInt (2-el integral package), F12 methods
   Garnet Chan, S. Sharma, J. Yang, R. Olivares  : DMRG
   Ulf Ekstrom                                   : XCFun DFT Library
   Mihaly Kallay                                 : mrcc  (arbitrary order and MRCC methods)
   Jiri Pittner, Ondrej Demel                    : Mk-CCSD
   Frank Weinhold                                : gennbo (NPA and NBO analysis)
   Christopher J. Cramer and Donald G. Truhlar   : smd solvation model
   Lars Goerigk                                  : TD-DFT with DH, B97 family of functionals
   V. Asgeirsson, H. Jonsson                     : NEB implementation
   FAccTs GmbH                                   : IRC, NEB, NEB-TS, DLPNO-Multilevel, CI-OPT
                                                   MM, QMMM, 2- and 3-layer-ONIOM, Crystal-QMMM,
                                                   LR-CPCM, SF, NACMEs, symmetry and pop. for TD-DFT,
                                                   nearIR, NL-DFT gradient (VV10), updates on ESD,
                                                   ML-optimized integration grids
   S Lehtola, MJT Oliveira, MAL Marques          : LibXC Library
   Liviu Ungur et al                             : ANISO software


 Your calculation uses the libint2 library for the computation of 2-el integrals
 For citations please refer to: http://libint.valeyev.net

 Your ORCA version has been built with support for libXC version: 5.1.0
 For citations please refer to: https://tddft.org/programs/libxc/

 This ORCA versions uses:
   CBLAS   interface :  Fast vector & matrix operations
   LAPACKE interface :  Fast linear algebra routines
   SCALAPACK package :  Parallel linear algebra routines
   Shared memory     :  Shared parallel matrices
   BLAS/LAPACK       :  OpenBLAS 0.3.15  USE64BITINT DYNAMIC_ARCH NO_AFFINITY Haswell SINGLE_THREADED
        Core in use  :  Haswell
   Copyright (c) 2011-2014, The OpenBLAS Project




***************************************
The coordinates will be read from file: his1.xyz
***************************************


Your calculation utilizes the geometrical counterpoise correction gCP
Please cite in your paper:
H.Kruse, S. Grimme J.Chem.Phys., 136, (2012), 154101 
   

Your calculation utilizes the atom-pairwise dispersion correction
with the Becke-Johnson damping scheme (D3BJ)
Cite in your paper:
S.Grimme, S.Ehrlich, L.Goerigk, J Comput Chem, (2011), 32, 1456–1465 
S.Grimme, J.Antony, S.Ehrlich and H.Krieg, J.Chem.Phys., 132, (2010), 154104 
   

Your calculation employs the composite approach PBEh-3c.
Please cite in your paper:
S. Grimme, J. G. Brandenburg, C. Bannwarth, A. Hansen J.Chem.Phys., 143, (2015), 054107 
   

================================================================================

----- Orbital basis set information -----
Your calculation utilizes the basis: def2-mSVP

----- AuxJ basis set information -----
Your calculation utilizes the auxiliary basis: def2/J
   F. Weigend, Phys. Chem. Chem. Phys. 8, 1057 (2006).

================================================================================
                                        WARNINGS
                       Please study these warnings very carefully!
================================================================================


INFO   : the flag for use of the SHARK integral package has been found!

================================================================================
                                       INPUT FILE
================================================================================
NAME = pbeh-3c.inp
|  1> ! PBEh-3c def2/J TightSCF DefGrid3
|  2> 
|  3> %maxcore 60000
|  4> 
|  5> %pal
|  6> nprocs 4
|  7> end
|  8> 
|  9> *xyzfile 1 1 his1.xyz
| 10> 
| 11>                          ****END OF INPUT****
================================================================================

                       ****************************
                       * Single Point Calculation *
                       ****************************

---------------------------------
CARTESIAN COORDINATES (ANGSTROEM)
---------------------------------
  N      1.295363    1.708079   -0.178687
  C      1.556258    0.442658    0.498858
  C      1.857803   -0.621733   -0.546038
  O      2.009945   -1.811062    0.017511
  H      1.408626    2.484977    0.461495
  O      1.944600   -0.402635   -1.717840
  H     -0.423269    1.420535   -0.772254
  H      2.425708    0.491250    1.170033
  C      0.335428    0.048695    1.350128
  C     -0.882757   -0.140394    0.511306
  H      0.153558    0.837584    2.087444
  H      0.538115   -0.859523    1.917281
  C     -1.896757   -1.042525    0.536384
  N     -1.145556    0.701711   -0.540208
  H     -2.085506   -1.875986    1.192438
  H     -3.587892   -1.200002   -0.741263
  C     -2.258329    0.341757   -1.144732
  N     -2.735932   -0.713752   -0.499487
  H     -2.700597    0.812020   -2.008173
  H      1.940929    1.849529   -0.947846
  H      2.250262   -2.471183   -0.646348

----------------------------
CARTESIAN COORDINATES (A.U.)
----------------------------
  NO LB      ZA    FRAG     MASS         X           Y           Z
   0 N     7.0000    0    14.007    2.447882    3.227802   -0.337670
   1 C     6.0000    0    12.011    2.940901    0.836503    0.942705
   2 C     6.0000    0    12.011    3.510740   -1.174905   -1.031863
   3 O     8.0000    0    15.999    3.798245   -3.422411    0.033090
   4 H     1.0000    0     1.008    2.661917    4.695925    0.872099
   5 O     8.0000    0    15.999    3.674762   -0.760870   -3.246248
   6 H     1.0000    0     1.008   -0.799862    2.684422   -1.459348
   7 H     1.0000    0     1.008    4.583923    0.928328    2.211041
   8 C     6.0000    0    12.011    0.633867    0.092019    2.551371
   9 C     6.0000    0    12.011   -1.668169   -0.265305    0.966229
  10 H     1.0000    0     1.008    0.290182    1.582804    3.944698
  11 H     1.0000    0     1.008    1.016891   -1.624263    3.623135
  12 C     6.0000    0    12.011   -3.584351   -1.970087    1.013620
  13 N     7.0000    0    14.007   -2.164787    1.326042   -1.020845
  14 H     1.0000    0     1.008   -3.941035   -3.545100    2.253382
  15 H     1.0000    0     1.008   -6.780134   -2.267676   -1.400785
  16 C     6.0000    0    12.011   -4.267623    0.645828   -2.163231
  17 N     7.0000    0    14.007   -5.170162   -1.348796   -0.943894
  18 H     1.0000    0     1.008   -5.103389    1.534494   -3.794897
  19 H     1.0000    0     1.008    3.667824    3.495104   -1.791170
  20 H     1.0000    0     1.008    4.252378   -4.669859   -1.221421

--------------------------------
INTERNAL COORDINATES (ANGSTROEM)
--------------------------------
 N      0   0   0     0.000000000000     0.00000000     0.00000000
 C      1   0   0     1.458912202515     0.00000000     0.00000000
 C      2   1   0     1.521731602888   108.85880580     0.00000000
 O      3   2   1     1.324854022185   111.01347769   184.36559689
 H      1   2   3     1.013030774383   110.59191041   199.60452793
 O      3   2   1     1.195264460066   124.01057849     4.41163947
 H      1   2   3     1.840841885118   100.44073662    77.32300359
 H      2   1   3     1.099445096639   112.74282902   118.64281278
 C      2   1   3     1.539575502978   109.69036128   238.41050148
 C      9   2   1     1.491090290020   111.66830183    61.18193129
 H      9   2   1     1.095015352920   108.64210306   300.26117445
 H      9   2   1     1.089772346497   110.70375711   183.87656790
 C     10   9   2     1.357448263664   133.16930507   140.10204995
 N      7   1   2     1.045108077481   132.92766977    13.72614296
 H     13  10   9     1.077353476980   131.01458669     0.21686340
 H     13  10   9     2.125351980615   129.23578469   180.23874374
 C     14   7   1     1.316540937891   132.08588914   195.59890289
 N     16  13  10     1.010312604796    31.73362581     0.21762537
 H     17  14   7     1.078089397728   126.52921216   354.17880699
 H      1   2   3     1.014085238977   111.06297431   318.90941669
 H      4   3   2     0.966550466326   110.45662587   183.19872445

---------------------------
INTERNAL COORDINATES (A.U.)
---------------------------
 N      0   0   0     0.000000000000     0.00000000     0.00000000
 C      1   0   0     2.756944516189     0.00000000     0.00000000
 C      2   1   0     2.875655978792   108.85880580     0.00000000
 O      3   2   1     2.503611269353   111.01347769   184.36559689
 H      1   2   3     1.914350728819   110.59191041   199.60452793
 O      3   2   1     2.258722487135   124.01057849     4.41163947
 H      1   2   3     3.478687018724   100.44073662    77.32300359
 H      2   1   3     2.077650131931   112.74282902   118.64281278
 C      2   1   3     2.909376063122   109.69036128   238.41050148
 C      9   2   1     2.817752289088   111.66830183    61.18193129
 H      9   2   1     2.069279129458   108.64210306   300.26117445
 H      9   2   1     2.059371283200   110.70375711   183.87656790
 C     10   9   2     2.565205459291   133.16930507   140.10204995
 N      7   1   2     1.974968046787   132.92766977    13.72614296
 H     13  10   9     2.035903020921   131.01458669     0.21686340
 H     13  10   9     4.016333181550   129.23578469   180.23874374
 C     14   7   1     2.487901816709   132.08588914   195.59890289
 N     16  13  10     1.909214132713    31.73362581     0.21762537
 H     17  14   7     2.037293709590   126.52921216   354.17880699
 H      1   2   3     1.916343378118   111.06297431   318.90941669
 H      4   3   2     1.826515675969   110.45662587   183.19872445

---------------------
BASIS SET INFORMATION
---------------------
There are 4 groups of distinct atoms

 Group   1 Type N   : 8s4p1d contracted to 4s2p1d pattern {5111/31/1}
 Group   2 Type C   : 8s4p1d contracted to 4s2p1d pattern {5111/31/1}
 Group   3 Type O   : 8s4p1d contracted to 4s2p1d pattern {5111/31/1}
 Group   4 Type H   : 4s contracted to 2s pattern {31}

Atom   0N    basis set group =>   1
Atom   1C    basis set group =>   2
Atom   2C    basis set group =>   2
Atom   3O    basis set group =>   3
Atom   4H    basis set group =>   4
Atom   5O    basis set group =>   3
Atom   6H    basis set group =>   4
Atom   7H    basis set group =>   4
Atom   8C    basis set group =>   2
Atom   9C    basis set group =>   2
Atom  10H    basis set group =>   4
Atom  11H    basis set group =>   4
Atom  12C    basis set group =>   2
Atom  13N    basis set group =>   1
Atom  14H    basis set group =>   4
Atom  15H    basis set group =>   4
Atom  16C    basis set group =>   2
Atom  17N    basis set group =>   1
Atom  18H    basis set group =>   4
Atom  19H    basis set group =>   4
Atom  20H    basis set group =>   4
---------------------------------
AUXILIARY/J BASIS SET INFORMATION
---------------------------------
There are 4 groups of distinct atoms

 Group   1 Type N   : 12s5p4d2f1g contracted to 6s4p3d1f1g pattern {711111/2111/211/2/1}
 Group   2 Type C   : 12s5p4d2f1g contracted to 6s4p3d1f1g pattern {711111/2111/211/2/1}
 Group   3 Type O   : 12s5p4d2f1g contracted to 6s4p3d1f1g pattern {711111/2111/211/2/1}
 Group   4 Type H   : 5s2p1d contracted to 3s1p1d pattern {311/2/1}

Atom   0N    basis set group =>   1
Atom   1C    basis set group =>   2
Atom   2C    basis set group =>   2
Atom   3O    basis set group =>   3
Atom   4H    basis set group =>   4
Atom   5O    basis set group =>   3
Atom   6H    basis set group =>   4
Atom   7H    basis set group =>   4
Atom   8C    basis set group =>   2
Atom   9C    basis set group =>   2
Atom  10H    basis set group =>   4
Atom  11H    basis set group =>   4
Atom  12C    basis set group =>   2
Atom  13N    basis set group =>   1
Atom  14H    basis set group =>   4
Atom  15H    basis set group =>   4
Atom  16C    basis set group =>   2
Atom  17N    basis set group =>   1
Atom  18H    basis set group =>   4
Atom  19H    basis set group =>   4
Atom  20H    basis set group =>   4


           ************************************************************
           *        Program running with 4 parallel MPI-processes     *
           *              working on a common directory               *
           ************************************************************
------------------------------------------------------------------------------
                           ORCA GTO INTEGRAL CALCULATION
                           -- RI-GTO INTEGRALS CHOSEN --
------------------------------------------------------------------------------
------------------------------------------------------------------------------
                   ___                                                        
                  /   \      - P O W E R E D   B Y -                         
                 /     \                                                     
                 |  |  |   _    _      __       _____    __    __             
                 |  |  |  | |  | |    /  \     |  _  \  |  |  /  |          
                  \  \/   | |  | |   /    \    | | | |  |  | /  /          
                 / \  \   | |__| |  /  /\  \   | |_| |  |  |/  /          
                |  |  |   |  __  | /  /__\  \  |    /   |      \           
                |  |  |   | |  | | |   __   |  |    \   |  |\   \          
                \     /   | |  | | |  |  |  |  | |\  \  |  | \   \       
                 \___/    |_|  |_| |__|  |__|  |_| \__\ |__|  \__/        
                                                                              
                      - O R C A' S   B I G   F R I E N D -                    
                                      &                                       
                       - I N T E G R A L  F E E D E R -                       
                                                                              
 v1 FN, 2020, v2 2021                                                         
------------------------------------------------------------------------------


Reading SHARK input file pbeh-3c.SHARKINP.tmp ... ok
----------------------
SHARK INTEGRAL PACKAGE
----------------------

Number of atoms                             ...     21
Number of basis functions                   ...    185
Number of shells                            ...     97
Maximum angular momentum                    ...      2
Integral batch strategy                     ... SHARK/LIBINT Hybrid
RI-J (if used) integral strategy            ... SPLIT-RIJ (Revised 2003 algorithm where possible)
Printlevel                                  ...      1
Contraction scheme used                     ... SEGMENTED contraction
Coulomb Range Separation                    ... NOT USED
Exchange Range Separation                   ... NOT USED
Finite Nucleus Model                        ... NOT USED
Auxiliary Coulomb fitting basis             ... AVAILABLE
   # of basis functions in Aux-J            ...    649
   # of shells in Aux-J                     ...    215
   Maximum angular momentum in Aux-J        ...      4
Auxiliary J/K fitting basis                 ... NOT available
Auxiliary Correlation fitting basis         ... NOT available
Auxiliary 'external' fitting basis          ... NOT available
Integral threshold                          ...     2.500000e-11
Primitive cut-off                           ...     2.500000e-12
Primitive pair pre-selection threshold      ...     2.500000e-12

Calculating pre-screening integrals         ... done (  0.1 sec) Dimension = 97
Organizing shell pair data                  ... done (  0.3 sec)
Shell pair information
Total number of shell pairs                 ...      4753
Shell pairs after pre-screening             ...      4114
Total number of primitive shell pairs       ...     17009
Primitive shell pairs kept                  ...     10120
          la=0 lb=0:   1666 shell pairs
          la=1 lb=0:   1311 shell pairs
          la=1 lb=1:    249 shell pairs
          la=2 lb=0:    591 shell pairs
          la=2 lb=1:    234 shell pairs
          la=2 lb=2:     63 shell pairs

Calculating one electron integrals          ... done (  0.1 sec)
Calculating RI/J V-Matrix + Cholesky decomp.... done (  0.3 sec)
Calculating Nuclear repulsion               ... done (  0.0 sec) ENN=    652.085731467799 Eh

SHARK setup successfully completed in   1.5 seconds

Maximum memory used throughout the entire GTOINT-calculation: 12.7 MB


           ************************************************************
           *        Program running with 4 parallel MPI-processes     *
           *              working on a common directory               *
           ************************************************************
-------------------------------------------------------------------------------
                                 ORCA SCF
-------------------------------------------------------------------------------

------------
SCF SETTINGS
------------
Hamiltonian:
 Density Functional     Method          .... DFT(GTOs)
 Exchange Functional    Exchange        .... PBE
   PBE kappa parameter   XKappa         ....  1.024500
   PBE mue parameter    XMuePBE         ....  0.123457
 Correlation Functional Correlation     .... PBE
   PBE beta parameter  CBetaPBE         ....  0.030000
 LDA part of GGA corr.  LDAOpt          .... PW91-LDA
 Gradients option       PostSCFGGA      .... off
 Hybrid DFT is turned on
   Fraction HF Exchange ScalHFX         ....  0.420000
   Scaling of DF-GGA-X  ScalDFX         ....  0.580000
   Scaling of DF-GGA-C  ScalDFC         ....  1.000000
   Scaling of DF-LDA-C  ScalLDAC        ....  1.000000
   Perturbative correction              ....  0.000000
   Density functional embedding theory  .... OFF
 RI-approximation to the Coulomb term is turned on
   Number of AuxJ basis functions       .... 649
   RIJ-ON(X) (HFX calculated with O(N)) .... on
   Number of AuxJ basis functions       .... 649
   RIJ-COSX (HFX calculated with COS-X)).... on


General Settings:
 Integral files         IntName         .... pbeh-3c
 Hartree-Fock type      HFTyp           .... RHF
 Total Charge           Charge          ....    1
 Multiplicity           Mult            ....    1
 Number of Electrons    NEL             ....   82
 Basis Dimension        Dim             ....  185
 Nuclear Repulsion      ENuc            ....    652.0857314678 Eh

Convergence Acceleration:
 DIIS                   CNVDIIS         .... on
   Start iteration      DIISMaxIt       ....    12
   Startup error        DIISStart       ....  0.200000
   # of expansion vecs  DIISMaxEq       ....     5
   Bias factor          DIISBfac        ....   1.050
   Max. coefficient     DIISMaxC        ....  10.000
 Trust-Rad. Augm. Hess. CNVTRAH         .... auto
   Auto Start mean grad. ratio tolernc. ....  1.125000
   Auto Start start iteration           ....    20
   Auto Start num. interpolation iter.  ....    10
   Max. Number of Micro iterations      ....    16
   Max. Number of Macro iterations      .... Maxiter - #DIIS iter
   Number of Davidson start vectors     ....     2
   Converg. threshold I  (grad. norm)   ....   1.000e-05
   Converg. threshold II (energy diff.) ....   1.000e-08
   Grad. Scal. Fac. for Micro threshold ....   0.100
   Minimum threshold for Micro iter.    ....   0.010
   NR start threshold (gradient norm)   ....   0.001
   Initial trust radius                 ....   0.400
   Minimum AH scaling param. (alpha)    ....   1.000
   Maximum AH scaling param. (alpha)    .... 1000.000
   Orbital update algorithm             .... Taylor
   White noise on init. David. guess    .... on
   Maximum white noise                  ....   0.010
   Quad. conv. algorithm                .... NR
   COSX micro iterations for RIJONX calc.... off
 SOSCF                  CNVSOSCF        .... on
   Start iteration      SOSCFMaxIt      ....   150
   Startup grad/error   SOSCFStart      ....  0.003300
 Level Shifting         CNVShift        .... on
   Level shift para.    LevelShift      ....    0.2500
   Turn off err/grad.   ShiftErr        ....    0.0010
 Zerner damping         CNVZerner       .... off
 Static damping         CNVDamp         .... on
   Fraction old density DampFac         ....    0.7000
   Max. Damping (<1)    DampMax         ....    0.9800
   Min. Damping (>=0)   DampMin         ....    0.0000
   Turn off err/grad.   DampErr         ....    0.1000
 Fernandez-Rico         CNVRico         .... off

SCF Procedure:
 Maximum # iterations   MaxIter         ....   125
 SCF integral mode      SCFMode         .... Direct
   Integral package                     .... SHARK and LIBINT hybrid scheme
 Reset frequency        DirectResetFreq ....    20
 Integral Threshold     Thresh          ....  2.500e-11 Eh
 Primitive CutOff       TCut            ....  2.500e-12 Eh

Convergence Tolerance:
 Convergence Check Mode ConvCheckMode   .... Total+1el-Energy
 Convergence forced     ConvForced      .... 0
 Energy Change          TolE            ....  1.000e-08 Eh
 1-El. energy change                    ....  1.000e-05 Eh
 Orbital Gradient       TolG            ....  1.000e-05
 Orbital Rotation angle TolX            ....  1.000e-05
 DIIS Error             TolErr          ....  5.000e-07


Diagonalization of the overlap matrix:
Smallest eigenvalue                        ... 1.328e-03
Time for diagonalization                   ...    0.006 sec
Threshold for overlap eigenvalues          ... 1.000e-08
Number of eigenvalues below threshold      ... 0
Time for construction of square roots      ...    0.054 sec
Total time needed                          ...    0.060 sec

--------------------------------
INITIAL GUESS: MINIMAL BASIS EHT
--------------------------------
The minimal basis has 65 functions
EHT matrix was diagonalized
Basis set overlap was calculated now projecting the orbitals
Using GuessMode=FMatrix for the initial guess
C*T matrix was formed
Effective Fockian was calculated
Effective Fockian was diagonalized
Initial density was built
                      ------------------
                      INITIAL GUESS DONE
                      ------------------
-------------------
DFT GRID GENERATION
-------------------

General Integration Accuracy     IntAcc      ... 4.959
Radial Grid Type                 RadialGrid  ... OptM3 with GC (2021)
Angular Grid (max. ang.)         AngularGrid ... 6 (Lebedev-590)
Angular grid pruning method      GridPruning ... 4 (adaptive)
Weight generation scheme         WeightScheme... Becke
Basis function cutoff            BFCut       ... 1.0000e-11
Integration weight cutoff        WCut        ... 1.0000e-14
Angular grids for H and He will be reduced by one unit
Partially contracted basis set               ... off
Rotationally invariant grid construction     ... off

Total number of grid points                  ...   243369
Total number of batches                      ...     3811
Average number of points per batch           ...       63
Average number of grid points per atom       ...    11589
Time for grid setup =    4.660 sec

--------------------
COSX GRID GENERATION
--------------------

GRIDX 1
-------
General Integration Accuracy     IntAcc      ... 4.020
Radial Grid Type                 RadialGrid  ... OptM3 with GC (2021)
Angular Grid (max. ang.)         AngularGrid ... 2 (Lebedev-110)
Angular grid pruning method      GridPruning ... 4 (adaptive)
Weight generation scheme         WeightScheme... Becke
Basis function cutoff            BFCut       ... 1.0000e-11
Integration weight cutoff        WCut        ... 1.0000e-14
Angular grids for H and He will be reduced by one unit
Partially contracted basis set               ... on
Rotationally invariant grid construction     ... off

Total number of grid points                  ...    27167
Total number of batches                      ...      434
Average number of points per batch           ...       62
Average number of grid points per atom       ...     1294
UseSFitting                                  ... on

GRIDX 2
-------
General Integration Accuracy     IntAcc      ... 4.338
Radial Grid Type                 RadialGrid  ... OptM3 with GC (2021)
Angular Grid (max. ang.)         AngularGrid ... 3 (Lebedev-194)
Angular grid pruning method      GridPruning ... 4 (adaptive)
Weight generation scheme         WeightScheme... Becke
Basis function cutoff            BFCut       ... 1.0000e-11
Integration weight cutoff        WCut        ... 1.0000e-14
Angular grids for H and He will be reduced by one unit
Partially contracted basis set               ... on
Rotationally invariant grid construction     ... off

Total number of grid points                  ...    59533
Total number of batches                      ...      941
Average number of points per batch           ...       63
Average number of grid points per atom       ...     2835
UseSFitting                                  ... on

GRIDX 3
-------
General Integration Accuracy     IntAcc      ... 4.871
Radial Grid Type                 RadialGrid  ... OptM3 with GC (2021)
Angular Grid (max. ang.)         AngularGrid ... 4 (Lebedev-302)
Angular grid pruning method      GridPruning ... 4 (adaptive)
Weight generation scheme         WeightScheme... Becke
Basis function cutoff            BFCut       ... 1.0000e-11
Integration weight cutoff        WCut        ... 1.0000e-14
Angular grids for H and He will be reduced by one unit
Partially contracted basis set               ... on
Rotationally invariant grid construction     ... off

Total number of grid points                  ...   112837
Total number of batches                      ...     1772
Average number of points per batch           ...       63
Average number of grid points per atom       ...     5373
UseSFitting                                  ... on

Time for X-Grid setup             =    4.999 sec

--------------
SCF ITERATIONS
--------------
ITER       Energy         Delta-E        Max-DP      RMS-DP      [F,P]     Damp
               ***  Starting incremental Fock matrix formation  ***
  0   -546.4319752775   0.000000000000 0.18758314  0.00509353  0.5315308 0.7000
  1   -546.9915926618  -0.559617384300 0.10545954  0.00314947  0.2882217 0.7000
  2   -547.2983698007  -0.306777138894 0.05923276  0.00197356  0.2035174 0.7000
                               ***Turning on DIIS***
  3   -547.5104837271  -0.212113926353 0.03415500  0.00137487  0.1434589 0.7000
  4   -547.6623808614  -0.151897134376 0.02336545  0.00104005  0.1018700 0.7000
  5   -547.7700737897  -0.107692928266 0.05664733  0.00257823  0.0709520 0.0000
  6   -548.0267906177  -0.256716827989 0.00541793  0.00013654  0.0043504 0.0000
                      *** Initiating the SOSCF procedure ***
                           *** Shutting down DIIS ***
                      *** Re-Reading the Fockian *** 
                      *** Removing any level shift *** 
ITER      Energy       Delta-E        Grad      Rot      Max-DP    RMS-DP
  7   -548.02695597  -0.0001653523  0.000664  0.000664  0.002120  0.000058
               *** Restarting incremental Fock matrix formation ***
  8   -548.02697373  -0.0000177587  0.000565  0.001323  0.002003  0.000044
  9   -548.02697885  -0.0000051223  0.000543  0.000518  0.001037  0.000028
 10   -548.02698193  -0.0000030813  0.000135  0.000192  0.000530  0.000012
 11   -548.02698230  -0.0000003659  0.000032  0.000056  0.000108  0.000003
 12   -548.02698234  -0.0000000407  0.000018  0.000035  0.000081  0.000002
                  ***Gradient check signals convergence***
              ***Rediagonalizing the Fockian in SOSCF/NRSCF***

               *****************************************************
               *                     SUCCESS                       *
               *           SCF CONVERGED AFTER  13 CYCLES          *
               *****************************************************

Old exchange energy                            =    -29.726695832 Eh
New exchange energy                            =    -29.726699954 Eh
Exchange energy change after final integration =     -0.000004123 Eh
Total energy after final integration           =   -548.026986485 Eh
Final COS-X integration done in                =     9.816 sec

----------------
TOTAL SCF ENERGY
----------------

Total Energy       :         -548.02698649 Eh          -14912.57244 eV

Components:
Nuclear Repulsion  :          652.08573147 Eh           17744.15485 eV
Electronic Energy  :        -1200.11271795 Eh          -32656.72729 eV
One Electron Energy:        -2026.27158164 Eh          -55137.65288 eV
Two Electron Energy:          826.15886368 Eh           22480.92559 eV
Max COSX asymmetry :            0.00000108 Eh               0.00003 eV

Virial components:
Potential Energy   :        -1092.18840595 Eh          -29719.95746 eV
Kinetic Energy     :          544.16141946 Eh           14807.38502 eV
Virial Ratio       :            2.00710371


DFT components:
N(Alpha)           :       41.000000809317 electrons
N(Beta)            :       41.000000809317 electrons
N(Total)           :       82.000001618635 electrons
E(X)               :      -39.556799557895 Eh       
E(C)               :       -3.652566045234 Eh       
E(XC)              :      -43.209365603129 Eh       
DFET-embed. en.    :        0.000000000000 Eh       

---------------
SCF CONVERGENCE
---------------

  Last Energy change         ...   -2.3540e-08  Tolerance :   1.0000e-08
  Last MAX-Density change    ...    1.7764e-15  Tolerance :   1.0000e-07
  Last RMS-Density change    ...    4.4079e-17  Tolerance :   5.0000e-09
  Last Orbital Gradient      ...    2.2653e-06  Tolerance :   1.0000e-05
  Last Orbital Rotation      ...    6.2958e-06  Tolerance :   1.0000e-05

             **** THE GBW FILE WAS UPDATED (pbeh-3c.gbw) ****
             **** DENSITY pbeh-3c.scfp WAS UPDATED ****
             **** ENERGY FILE WAS UPDATED (pbeh-3c.en.tmp) ****
             **** THE GBW FILE WAS UPDATED (pbeh-3c.gbw) ****
             **** DENSITY pbeh-3c.scfp WAS UPDATED ****
----------------
ORBITAL ENERGIES
----------------

  NO   OCC          E(Eh)            E(eV) 
   0   2.0000     -19.675130      -535.3875 
   1   2.0000     -19.620406      -533.8984 
   2   2.0000     -14.896908      -405.3655 
   3   2.0000     -14.875511      -404.7832 
   4   2.0000     -14.780598      -402.2005 
   5   2.0000     -10.715612      -291.5866 
   6   2.0000     -10.714353      -291.5524 
   7   2.0000     -10.664321      -290.1909 
   8   2.0000     -10.657251      -289.9986 
   9   2.0000     -10.638924      -289.4999 
  10   2.0000     -10.612598      -288.7835 
  11   2.0000      -1.362626       -37.0789 
  12   2.0000      -1.351148       -36.7666 
  13   2.0000      -1.267524       -34.4911 
  14   2.0000      -1.203614       -32.7520 
  15   2.0000      -1.150208       -31.2988 
  16   2.0000      -1.062981       -28.9252 
  17   2.0000      -0.997541       -27.1445 
  18   2.0000      -0.929667       -25.2975 
  19   2.0000      -0.914923       -24.8963 
  20   2.0000      -0.862019       -23.4567 
  21   2.0000      -0.828988       -22.5579 
  22   2.0000      -0.797100       -21.6902 
  23   2.0000      -0.761223       -20.7139 
  24   2.0000      -0.737697       -20.0738 
  25   2.0000      -0.714656       -19.4468 
  26   2.0000      -0.707956       -19.2645 
  27   2.0000      -0.695455       -18.9243 
  28   2.0000      -0.684824       -18.6350 
  29   2.0000      -0.674977       -18.3671 
  30   2.0000      -0.659110       -17.9353 
  31   2.0000      -0.647151       -17.6099 
  32   2.0000      -0.630576       -17.1588 
  33   2.0000      -0.603039       -16.4095 
  34   2.0000      -0.592008       -16.1094 
  35   2.0000      -0.572424       -15.5765 
  36   2.0000      -0.551107       -14.9964 
  37   2.0000      -0.511683       -13.9236 
  38   2.0000      -0.477452       -12.9921 
  39   2.0000      -0.465855       -12.6766 
  40   2.0000      -0.457455       -12.4480 
  41   0.0000      -0.145008        -3.9459 
  42   0.0000      -0.107077        -2.9137 
  43   0.0000      -0.084942        -2.3114 
  44   0.0000      -0.042023        -1.1435 
  45   0.0000      -0.006638        -0.1806 
  46   0.0000       0.007477         0.2035 
  47   0.0000       0.009533         0.2594 
  48   0.0000       0.030142         0.8202 
  49   0.0000       0.040348         1.0979 
  50   0.0000       0.046481         1.2648 
  51   0.0000       0.056243         1.5304 
  52   0.0000       0.073762         2.0072 
  53   0.0000       0.077346         2.1047 
  54   0.0000       0.094905         2.5825 
  55   0.0000       0.103877         2.8266 
  56   0.0000       0.111179         3.0253 
  57   0.0000       0.128807         3.5050 
  58   0.0000       0.137186         3.7330 
  59   0.0000       0.160871         4.3775 
  60   0.0000       0.169114         4.6018 
  61   0.0000       0.186687         5.0800 
  62   0.0000       0.218973         5.9586 
  63   0.0000       0.290858         7.9147 
  64   0.0000       0.292936         7.9712 
  65   0.0000       0.327534         8.9127 
  66   0.0000       0.360944         9.8218 
  67   0.0000       0.383559        10.4372 
  68   0.0000       0.388373        10.5682 
  69   0.0000       0.410193        11.1619 
  70   0.0000       0.428164        11.6509 
  71   0.0000       0.431927        11.7533 
  72   0.0000       0.442097        12.0301 
  73   0.0000       0.458251        12.4696 
  74   0.0000       0.466773        12.7015 
  75   0.0000       0.472102        12.8465 
  76   0.0000       0.491897        13.3852 
  77   0.0000       0.515970        14.0402 
  78   0.0000       0.553841        15.0708 
  79   0.0000       0.562872        15.3165 
  80   0.0000       0.586397        15.9567 
  81   0.0000       0.607236        16.5237 
  82   0.0000       0.654320        17.8050 
  83   0.0000       0.663960        18.0673 
  84   0.0000       0.675905        18.3923 
  85   0.0000       0.687310        18.7027 
  86   0.0000       0.712691        19.3933 
  87   0.0000       0.740855        20.1597 
  88   0.0000       0.751585        20.4517 
  89   0.0000       0.779031        21.1985 
  90   0.0000       0.789068        21.4716 
  91   0.0000       0.803938        21.8763 
  92   0.0000       0.814835        22.1728 
  93   0.0000       0.841341        22.8941 
  94   0.0000       0.847730        23.0679 
  95   0.0000       0.861381        23.4394 
  96   0.0000       0.869604        23.6631 
  97   0.0000       0.886644        24.1268 
  98   0.0000       0.898021        24.4364 
  99   0.0000       0.912454        24.8291 
 100   0.0000       0.940720        25.5983 
 101   0.0000       0.956590        26.0301 
 102   0.0000       0.977930        26.6108 
 103   0.0000       0.987581        26.8735 
 104   0.0000       1.014488        27.6056 
 105   0.0000       1.026378        27.9292 
 106   0.0000       1.061776        28.8924 
 107   0.0000       1.091232        29.6939 
 108   0.0000       1.115505        30.3544 
 109   0.0000       1.137549        30.9543 
 110   0.0000       1.156501        31.4700 
 111   0.0000       1.196734        32.5648 
 112   0.0000       1.202120        32.7113 
 113   0.0000       1.254473        34.1359 
 114   0.0000       1.283422        34.9237 
 115   0.0000       1.293264        35.1915 
 116   0.0000       1.309000        35.6197 
 117   0.0000       1.326537        36.0969 
 118   0.0000       1.365478        37.1565 
 119   0.0000       1.396330        37.9961 
 120   0.0000       1.453101        39.5409 
 121   0.0000       1.467852        39.9423 
 122   0.0000       1.499188        40.7950 
 123   0.0000       1.556192        42.3461 
 124   0.0000       1.578390        42.9502 
 125   0.0000       1.593308        43.3561 
 126   0.0000       1.639212        44.6052 
 127   0.0000       1.651267        44.9333 
 128   0.0000       1.693972        46.0953 
 129   0.0000       1.711871        46.5824 
 130   0.0000       1.736007        47.2392 
 131   0.0000       1.773153        48.2499 
 132   0.0000       1.796722        48.8913 
 133   0.0000       1.808914        49.2230 
 134   0.0000       1.824423        49.6451 
 135   0.0000       1.845683        50.2236 
 136   0.0000       1.885998        51.3206 
 137   0.0000       1.907365        51.9020 
 138   0.0000       1.919227        52.2248 
 139   0.0000       1.961748        53.3819 
 140   0.0000       1.970211        53.6122 
 141   0.0000       1.983441        53.9722 
 142   0.0000       2.029928        55.2372 
 143   0.0000       2.051304        55.8188 
 144   0.0000       2.075279        56.4712 
 145   0.0000       2.094253        56.9875 
 146   0.0000       2.100883        57.1679 
 147   0.0000       2.110871        57.4397 
 148   0.0000       2.152348        58.5684 
 149   0.0000       2.179313        59.3021 
 150   0.0000       2.186552        59.4991 
 151   0.0000       2.220786        60.4307 
 152   0.0000       2.260533        61.5122 
 153   0.0000       2.299959        62.5851 
 154   0.0000       2.333555        63.4993 
 155   0.0000       2.351440        63.9859 
 156   0.0000       2.383972        64.8712 
 157   0.0000       2.418259        65.8042 
 158   0.0000       2.450765        66.6887 
 159   0.0000       2.475962        67.3743 
 160   0.0000       2.489798        67.7508 
 161   0.0000       2.522012        68.6274 
 162   0.0000       2.573728        70.0347 
 163   0.0000       2.603909        70.8560 
 164   0.0000       2.635956        71.7280 
 165   0.0000       2.644400        71.9578 
 166   0.0000       2.672390        72.7194 
 167   0.0000       2.731342        74.3236 
 168   0.0000       2.828402        76.9647 
 169   0.0000       2.902907        78.9921 
 170   0.0000       2.941713        80.0481 
 171   0.0000       2.997127        81.5560 
 172   0.0000       3.043068        82.8061 
 173   0.0000       3.088393        84.0394 
 174   0.0000      13.355156       363.4123 
 175   0.0000      13.606779       370.2593 
 176   0.0000      13.625920       370.7801 
 177   0.0000      13.865199       377.2912 
 178   0.0000      13.978033       380.3616 
 179   0.0000      14.060081       382.5943 
 180   0.0000      19.019810       517.5553 
 181   0.0000      19.065786       518.8064 
 182   0.0000      19.247623       523.7545 
 183   0.0000      25.458967       692.7737 
 184   0.0000      25.654999       698.1080 

                    ********************************
                    * MULLIKEN POPULATION ANALYSIS *
                    ********************************

-----------------------
MULLIKEN ATOMIC CHARGES
-----------------------
   0 N :   -0.811986
   1 C :   -0.244545
   2 C :    0.538379
   3 O :   -0.572134
   4 H :    0.367715
   5 O :   -0.361172
   6 H :    0.454150
   7 H :    0.303810
   8 C :   -0.506499
   9 C :    0.301839
  10 H :    0.289860
  11 H :    0.297560
  12 C :   -0.097554
  13 N :   -0.583879
  14 H :    0.314074
  15 H :    0.427926
  16 C :    0.249930
  17 N :   -0.556266
  18 H :    0.331861
  19 H :    0.388446
  20 H :    0.468485
Sum of atomic charges:    1.0000000

--------------------------------
MULLIKEN REDUCED ORBITAL CHARGES
--------------------------------
  0 N s       :     3.638693  s :     3.638693
      pz      :     1.300996  p :     4.140505
      px      :     1.685498
      py      :     1.154011
      dz2     :     0.001773  d :     0.032788
      dxz     :     0.008936
      dyz     :     0.011613
      dx2y2   :     0.006188
      dxy     :     0.004278
  1 C s       :     3.288892  s :     3.288892
      pz      :     0.997551  p :     2.894965
      px      :     1.070444
      py      :     0.826970
      dz2     :     0.005022  d :     0.060688
      dxz     :     0.015231
      dyz     :     0.016621
      dx2y2   :     0.014309
      dxy     :     0.009505
  2 C s       :     2.926788  s :     2.926788
      pz      :     0.864331  p :     2.393130
      px      :     0.743719
      py      :     0.785080
      dz2     :     0.032517  d :     0.141704
      dxz     :     0.025625
      dyz     :     0.055953
      dx2y2   :     0.013726
      dxy     :     0.013883
  3 O s       :     3.794855  s :     3.794855
      pz      :     1.665485  p :     4.747270
      px      :     1.772745
      py      :     1.309040
      dz2     :     0.004404  d :     0.030009
      dxz     :     0.004327
      dyz     :     0.014592
      dx2y2   :     0.003519
      dxy     :     0.003167
  4 H s       :     0.632285  s :     0.632285
  5 O s       :     3.751661  s :     3.751661
      pz      :     1.388026  p :     4.577334
      px      :     1.424100
      py      :     1.765207
      dz2     :     0.011267  d :     0.032178
      dxz     :     0.011990
      dyz     :     0.008020
      dx2y2   :     0.000386
      dxy     :     0.000515
  6 H s       :     0.545850  s :     0.545850
  7 H s       :     0.696190  s :     0.696190
  8 C s       :     3.383141  s :     3.383141
      pz      :     0.992666  p :     3.081150
      px      :     0.862648
      py      :     1.225837
      dz2     :     0.003389  d :     0.042208
      dxz     :     0.011108
      dyz     :     0.012572
      dx2y2   :     0.010791
      dxy     :     0.004348
  9 C s       :     3.072350  s :     3.072350
      pz      :     0.817392  p :     2.563251
      px      :     0.930538
      py      :     0.815321
      dz2     :     0.013418  d :     0.062561
      dxz     :     0.010586
      dyz     :     0.014241
      dx2y2   :     0.012299
      dxy     :     0.012018
 10 H s       :     0.710140  s :     0.710140
 11 H s       :     0.702440  s :     0.702440
 12 C s       :     3.191213  s :     3.191213
      pz      :     0.905184  p :     2.852530
      px      :     0.878255
      py      :     1.069091
      dz2     :     0.010193  d :     0.053810
      dxz     :     0.013002
      dyz     :     0.010470
      dx2y2   :     0.009894
      dxy     :     0.010251
 13 N s       :     3.600240  s :     3.600240
      pz      :     1.278907  p :     3.941364
      px      :     1.266932
      py      :     1.395525
      dz2     :     0.010179  d :     0.042274
      dxz     :     0.007030
      dyz     :     0.007760
      dx2y2   :     0.006790
      dxy     :     0.010515
 14 H s       :     0.685926  s :     0.685926
 15 H s       :     0.572074  s :     0.572074
 16 C s       :     3.078866  s :     3.078866
      pz      :     0.922422  p :     2.592971
      px      :     0.836193
      py      :     0.834357
      dz2     :     0.011020  d :     0.078233
      dxz     :     0.017731
      dyz     :     0.015318
      dx2y2   :     0.020625
      dxy     :     0.013540
 17 N s       :     3.567992  s :     3.567992
      pz      :     1.297320  p :     3.944766
      px      :     1.341729
      py      :     1.305717
      dz2     :     0.011259  d :     0.043508
      dxz     :     0.007840
      dyz     :     0.006560
      dx2y2   :     0.007806
      dxy     :     0.010042
 18 H s       :     0.668139  s :     0.668139
 19 H s       :     0.611554  s :     0.611554
 20 H s       :     0.531515  s :     0.531515


                     *******************************
                     * LOEWDIN POPULATION ANALYSIS *
                     *******************************

----------------------
LOEWDIN ATOMIC CHARGES
----------------------
   0 N :   -0.448922
   1 C :   -0.110114
   2 C :    0.112150
   3 O :   -0.268332
   4 H :    0.250902
   5 O :   -0.199417
   6 H :    0.308489
   7 H :    0.156229
   8 C :   -0.227914
   9 C :    0.006495
  10 H :    0.163047
  11 H :    0.173082
  12 C :   -0.079812
  13 N :   -0.081261
  14 H :    0.175444
  15 H :    0.301922
  16 C :    0.046386
  17 N :   -0.070906
  18 H :    0.180024
  19 H :    0.261189
  20 H :    0.351318

-------------------------------
LOEWDIN REDUCED ORBITAL CHARGES
-------------------------------
  0 N s       :     3.230477  s :     3.230477
      pz      :     1.301816  p :     4.157721
      px      :     1.660413
      py      :     1.195492
      dz2     :     0.005066  d :     0.060724
      dxz     :     0.013196
      dyz     :     0.022142
      dx2y2   :     0.012361
      dxy     :     0.007960
  1 C s       :     2.879480  s :     2.879480
      pz      :     1.055204  p :     3.097751
      px      :     1.075879
      py      :     0.966669
      dz2     :     0.009981  d :     0.132883
      dxz     :     0.032680
      dyz     :     0.038475
      dx2y2   :     0.030499
      dxy     :     0.021247
  2 C s       :     2.824140  s :     2.824140
      pz      :     1.051990  p :     2.742647
      px      :     0.763397
      py      :     0.927260
      dz2     :     0.073464  d :     0.321063
      dxz     :     0.051615
      dyz     :     0.135306
      dx2y2   :     0.030705
      dxy     :     0.029975
  3 O s       :     3.477495  s :     3.477495
      pz      :     1.650343  p :     4.735595
      px      :     1.748903
      py      :     1.336348
      dz2     :     0.007284  d :     0.055242
      dxz     :     0.005198
      dyz     :     0.025776
      dx2y2   :     0.010394
      dxy     :     0.006590
  4 H s       :     0.749098  s :     0.749098
  5 O s       :     3.510730  s :     3.510730
      pz      :     1.482168  p :     4.628781
      px      :     1.409856
      py      :     1.736757
      dz2     :     0.027105  d :     0.059906
      dxz     :     0.015751
      dyz     :     0.015460
      dx2y2   :     0.000824
      dxy     :     0.000766
  6 H s       :     0.691511  s :     0.691511
  7 H s       :     0.843771  s :     0.843771
  8 C s       :     2.901581  s :     2.901581
      pz      :     1.074649  p :     3.238916
      px      :     1.023313
      py      :     1.140955
      dz2     :     0.007389  d :     0.087417
      dxz     :     0.026192
      dyz     :     0.022573
      dx2y2   :     0.022114
      dxy     :     0.009147
  9 C s       :     2.836120  s :     2.836120
      pz      :     0.967474  p :     3.012897
      px      :     1.058230
      py      :     0.987193
      dz2     :     0.030134  d :     0.144488
      dxz     :     0.024080
      dyz     :     0.033683
      dx2y2   :     0.027638
      dxy     :     0.028952
 10 H s       :     0.836953  s :     0.836953
 11 H s       :     0.826918  s :     0.826918
 12 C s       :     2.885456  s :     2.885456
      pz      :     0.992653  p :     3.075667
      px      :     0.996105
      py      :     1.086910
      dz2     :     0.022554  d :     0.118688
      dxz     :     0.030630
      dyz     :     0.020055
      dx2y2   :     0.021224
      dxy     :     0.024225
 13 N s       :     3.094743  s :     3.094743
      pz      :     1.283010  p :     3.887840
      px      :     1.268749
      py      :     1.336080
      dz2     :     0.023573  d :     0.098678
      dxz     :     0.019141
      dyz     :     0.017641
      dx2y2   :     0.015537
      dxy     :     0.022785
 14 H s       :     0.824556  s :     0.824556
 15 H s       :     0.698078  s :     0.698078
 16 C s       :     2.866734  s :     2.866734
      pz      :     1.017183  p :     2.919313
      px      :     0.953180
      py      :     0.948949
      dz2     :     0.021484  d :     0.167567
      dxz     :     0.037236
      dyz     :     0.031458
      dx2y2   :     0.045023
      dxy     :     0.032366
 17 N s       :     3.077288  s :     3.077288
      pz      :     1.307890  p :     3.893512
      px      :     1.284419
      py      :     1.301203
      dz2     :     0.025233  d :     0.100106
      dxz     :     0.018499
      dyz     :     0.017357
      dx2y2   :     0.017224
      dxy     :     0.021793
 18 H s       :     0.819976  s :     0.819976
 19 H s       :     0.738811  s :     0.738811
 20 H s       :     0.648682  s :     0.648682


                      *****************************
                      * MAYER POPULATION ANALYSIS *
                      *****************************

  NA   - Mulliken gross atomic population
  ZA   - Total nuclear charge
  QA   - Mulliken gross atomic charge
  VA   - Mayer's total valence
  BVA  - Mayer's bonded valence
  FA   - Mayer's free valence

  ATOM       NA         ZA         QA         VA         BVA        FA
  0 N      7.8120     7.0000    -0.8120     2.7768     2.7768    -0.0000
  1 C      6.2445     6.0000    -0.2445     3.6786     3.6786     0.0000
  2 C      5.4616     6.0000     0.5384     4.1101     4.1101     0.0000
  3 O      8.5721     8.0000    -0.5721     2.0190     2.0190     0.0000
  4 H      0.6323     1.0000     0.3677     0.8373     0.8373    -0.0000
  5 O      8.3612     8.0000    -0.3612     2.2461     2.2461     0.0000
  6 H      0.5459     1.0000     0.4541     0.8171     0.8171    -0.0000
  7 H      0.6962     1.0000     0.3038     0.8666     0.8666    -0.0000
  8 C      6.5065     6.0000    -0.5065     3.6064     3.6064     0.0000
  9 C      5.6982     6.0000     0.3018     3.6495     3.6495     0.0000
 10 H      0.7101     1.0000     0.2899     0.8753     0.8753    -0.0000
 11 H      0.7024     1.0000     0.2976     0.8849     0.8849     0.0000
 12 C      6.0976     6.0000    -0.0976     3.6945     3.6945     0.0000
 13 N      7.5839     7.0000    -0.5839     3.2379     3.2379     0.0000
 14 H      0.6859     1.0000     0.3141     0.8759     0.8759    -0.0000
 15 H      0.5721     1.0000     0.4279     0.7999     0.7999     0.0000
 16 C      5.7501     6.0000     0.2499     3.5782     3.5782    -0.0000
 17 N      7.5563     7.0000    -0.5563     3.3165     3.3165     0.0000
 18 H      0.6681     1.0000     0.3319     0.8618     0.8618    -0.0000
 19 H      0.6116     1.0000     0.3884     0.8319     0.8319    -0.0000
 20 H      0.5315     1.0000     0.4685     0.7719     0.7719     0.0000

  Mayer bond orders larger than 0.100000
B(  0-N ,  1-C ) :   0.9722 B(  0-N ,  4-H ) :   0.8348 B(  0-N ,  6-H ) :   0.1628 
B(  0-N , 19-H ) :   0.8113 B(  1-C ,  2-C ) :   0.8996 B(  1-C ,  7-H ) :   0.8684 
B(  1-C ,  8-C ) :   0.9496 B(  2-C ,  3-O ) :   1.1725 B(  2-C ,  5-O ) :   2.0802 
B(  3-O , 20-H ) :   0.7390 B(  6-H , 13-N ) :   0.6381 B(  8-C ,  9-C ) :   0.9215 
B(  8-C , 10-H ) :   0.8886 B(  8-C , 11-H ) :   0.8894 B(  9-C , 12-C ) :   1.6133 
B(  9-C , 13-N ) :   1.1401 B( 12-C , 14-H ) :   0.8816 B( 12-C , 17-N ) :   1.1202 
B( 13-N , 16-C ) :   1.3471 B( 15-H , 17-N ) :   0.7863 B( 16-C , 17-N ) :   1.2937 
B( 16-C , 18-H ) :   0.8684 

-------
TIMINGS
-------

Total SCF time: 0 days 0 hours 2 min 9 sec 

Total time                  ....     129.532 sec
Sum of individual times     ....     123.476 sec  ( 95.3%)

Fock matrix formation       ....     107.716 sec  ( 83.2%)
  Split-RI-J                ....       9.752 sec  (  9.1% of F)
  Chain of spheres X        ....      62.947 sec  ( 58.4% of F)
  XC integration            ....      22.266 sec  ( 20.7% of F)
    Basis function eval.    ....       5.734 sec  ( 25.8% of XC)
    Density eval.           ....       3.522 sec  ( 15.8% of XC)
    XC-Functional eval.     ....       1.899 sec  (  8.5% of XC)
    XC-Potential eval.      ....       2.156 sec  (  9.7% of XC)
Diagonalization             ....       1.098 sec  (  0.8%)
Density matrix formation    ....       0.097 sec  (  0.1%)
Population analysis         ....       0.748 sec  (  0.6%)
Initial guess               ....       0.023 sec  (  0.0%)
Orbital Transformation      ....       0.000 sec  (  0.0%)
Orbital Orthonormalization  ....       0.000 sec  (  0.0%)
DIIS solution               ....       3.377 sec  (  2.6%)
SOSCF solution              ....       0.758 sec  (  0.6%)
Grid generation             ....       9.659 sec  (  7.5%)

Maximum memory used throughout the entire SCF-calculation: 62.2 MB


-------------------------------------------------------------------------------
                          DFT DISPERSION CORRECTION                            
                                                                               
                              DFTD3 V3.1  Rev 1                                
                          USING Becke-Johnson damping                          
-------------------------------------------------------------------------------
The PBEh-3c composite method is recognized
Using three-body term ABC
Active option DFTDOPT                   ...         4   

molecular C6(AA) [au] = 4108.426893 


            DFT-D V3
 parameters
 s6 scaling factor         :     1.0000 
 a1 scaling factor         :     0.4860 
 s8 scaling factor         :     0.0000 
 a2 scaling factor         :     4.5000 
 Damping factor alpha9(ATM):    16.0000 
 ad hoc parameters k1-k3   :    16.0000     1.3333    -4.0000 

 Edisp/kcal,au: -7.813938873362  -0.012452302894 
 E6   /kcal   :  -7.891292321 
 E8   /kcal   :  -0.000000000 
 E6(ABC)      :   0.077353447 
 % E8         :   0.000000000 
 % E6(ABC)    :  -0.989941804 

-------------------------   ----------------
Dispersion correction           -0.012452303
-------------------------   ----------------

------------------   -----------------
gCP correction             0.046662442
------------------   -----------------

-------------------------   --------------------
FINAL SINGLE POINT ENERGY      -547.992776345556
-------------------------   --------------------


                            ***************************************
                            *     ORCA property calculations      *
                            ***************************************

                                    ---------------------
                                    Active property flags
                                    ---------------------
   (+) Dipole Moment


------------------------------------------------------------------------------
                       ORCA ELECTRIC PROPERTIES CALCULATION
------------------------------------------------------------------------------

Dipole Moment Calculation                       ... on
Quadrupole Moment Calculation                   ... off
Polarizability Calculation                      ... off
GBWName                                         ... pbeh-3c.gbw
Electron density                                ... pbeh-3c.scfp
The origin for moment calculation is the CENTER OF MASS  = ( 0.139036, -0.264144 -0.339535)

-------------
DIPOLE MOMENT
-------------
                                X             Y             Z
Electronic contribution:     -1.39250      -2.56354      -2.96437
Nuclear contribution   :     -0.72453       2.69155       3.26900
                        -----------------------------------------
Total Dipole Moment    :     -2.11702       0.12801       0.30463
                        -----------------------------------------
Magnitude (a.u.)       :      2.14266
Magnitude (Debye)      :      5.44620



--------------------
Rotational spectrum 
--------------------
 
Rotational constants in cm-1:     0.061868     0.027333     0.025800 
Rotational constants in MHz :  1854.760285   819.414785   773.455027 

 Dipole components along the rotational axes: 
x,y,z [a.u.] :    -2.120337     0.063560     0.301843 
x,y,z [Debye]:    -5.389469     0.161558     0.767224 

 

Timings for individual modules:

Sum of individual times         ...      132.179 sec (=   2.203 min)
GTO integral calculation        ...        2.001 sec (=   0.033 min)   1.5 %
SCF iterations                  ...      130.179 sec (=   2.170 min)  98.5 %
                             ****ORCA TERMINATED NORMALLY****
TOTAL RUN TIME: 0 days 0 hours 2 minutes 15 seconds 196 msec
