
                                 *****************
                                 * O   R   C   A *
                                 *****************

                                            #,                                       
                                            ###                                      
                                            ####                                     
                                            #####                                    
                                            ######                                   
                                           ########,                                 
                                     ,,################,,,,,                         
                               ,,#################################,,                 
                          ,,##########################################,,             
                       ,#########################################, ''#####,          
                    ,#############################################,,   '####,        
                  ,##################################################,,,,####,       
                ,###########''''           ''''###############################       
              ,#####''   ,,,,##########,,,,          '''####'''          '####       
            ,##' ,,,,###########################,,,                        '##       
           ' ,,###''''                  '''############,,,                           
         ,,##''                                '''############,,,,        ,,,,,,###''
      ,#''                                            '''#######################'''  
     '                                                          ''''####''''         
             ,#######,   #######,   ,#######,      ##                                
            ,#'     '#,  ##    ##  ,#'     '#,    #''#        ######   ,####,        
            ##       ##  ##   ,#'  ##            #'  '#       #        #'  '#        
            ##       ##  #######   ##           ,######,      #####,   #    #        
            '#,     ,#'  ##    ##  '#,     ,#' ,#      #,         ##   #,  ,#        
             '#######'   ##     ##  '#######'  #'      '#     #####' # '####'        



                  #######################################################
                  #                        -***-                        #
                  #          Department of theory and spectroscopy      #
                  #    Directorship and core code : Frank Neese         #
                  #        Max Planck Institute fuer Kohlenforschung    #
                  #                Kaiser Wilhelm Platz 1               #
                  #                 D-45470 Muelheim/Ruhr               #
                  #                      Germany                        #
                  #                                                     #
                  #                  All rights reserved                #
                  #                        -***-                        #
                  #######################################################


                         Program Version 5.0.3 -  RELEASE  -


 With contributions from (in alphabetic order):
   Daniel Aravena         : Magnetic Suceptibility
   Michael Atanasov       : Ab Initio Ligand Field Theory (pilot matlab implementation)
   Alexander A. Auer      : GIAO ZORA, VPT2 properties, NMR spectrum
   Ute Becker             : Parallelization
   Giovanni Bistoni       : ED, misc. LED, open-shell LED, HFLD
   Martin Brehm           : Molecular dynamics
   Dmytro Bykov           : SCF Hessian
   Vijay G. Chilkuri      : MRCI spin determinant printing, contributions to CSF-ICE
   Dipayan Datta          : RHF DLPNO-CCSD density
   Achintya Kumar Dutta   : EOM-CC, STEOM-CC
   Dmitry Ganyushin       : Spin-Orbit,Spin-Spin,Magnetic field MRCI
   Miquel Garcia          : C-PCM and meta-GGA Hessian, CC/C-PCM, Gaussian charge scheme
   Yang Guo               : DLPNO-NEVPT2, F12-NEVPT2, CIM, IAO-localization
   Andreas Hansen         : Spin unrestricted coupled pair/coupled cluster methods
   Benjamin Helmich-Paris : MC-RPA, TRAH-SCF, COSX integrals
   Lee Huntington         : MR-EOM, pCC
   Robert Izsak           : Overlap fitted RIJCOSX, COSX-SCS-MP3, EOM
   Marcus Kettner         : VPT2
   Christian Kollmar      : KDIIS, OOCD, Brueckner-CCSD(T), CCSD density, CASPT2, CASPT2-K
   Simone Kossmann        : Meta GGA functionals, TD-DFT gradient, OOMP2, MP2 Hessian
   Martin Krupicka        : Initial AUTO-CI
   Lucas Lang             : DCDCAS
   Marvin Lechner         : AUTO-CI (C++ implementation), FIC-MRCC
   Dagmar Lenk            : GEPOL surface, SMD
   Dimitrios Liakos       : Extrapolation schemes; Compound Job, initial MDCI parallelization
   Dimitrios Manganas     : Further ROCIS development; embedding schemes
   Dimitrios Pantazis     : SARC Basis sets
   Anastasios Papadopoulos: AUTO-CI, single reference methods and gradients
   Taras Petrenko         : DFT Hessian,TD-DFT gradient, ASA, ECA, R-Raman, ABS, FL, XAS/XES, NRVS
   Peter Pinski           : DLPNO-MP2, DLPNO-MP2 Gradient
   Christoph Reimann      : Effective Core Potentials
   Marius Retegan         : Local ZFS, SOC
   Christoph Riplinger    : Optimizer, TS searches, QM/MM, DLPNO-CCSD(T), (RO)-DLPNO pert. Triples
   Tobias Risthaus        : Range-separated hybrids, TD-DFT gradient, RPA, STAB
   Michael Roemelt        : Original ROCIS implementation
   Masaaki Saitow         : Open-shell DLPNO-CCSD energy and density
   Barbara Sandhoefer     : DKH picture change effects
   Avijit Sen             : IP-ROCIS
   Kantharuban Sivalingam : CASSCF convergence, NEVPT2, FIC-MRCI
   Bernardo de Souza      : ESD, SOC TD-DFT
   Georgi Stoychev        : AutoAux, RI-MP2 NMR, DLPNO-MP2 response
   Willem Van den Heuvel  : Paramagnetic NMR
   Boris Wezisla          : Elementary symmetry handling
   Frank Wennmohs         : Technical directorship


 We gratefully acknowledge several colleagues who have allowed us to
 interface, adapt or use parts of their codes:
   Stefan Grimme, W. Hujo, H. Kruse, P. Pracht,  : VdW corrections, initial TS optimization,
                  C. Bannwarth, S. Ehlert          DFT functionals, gCP, sTDA/sTD-DF
   Ed Valeev, F. Pavosevic, A. Kumar             : LibInt (2-el integral package), F12 methods
   Garnet Chan, S. Sharma, J. Yang, R. Olivares  : DMRG
   Ulf Ekstrom                                   : XCFun DFT Library
   Mihaly Kallay                                 : mrcc  (arbitrary order and MRCC methods)
   Jiri Pittner, Ondrej Demel                    : Mk-CCSD
   Frank Weinhold                                : gennbo (NPA and NBO analysis)
   Christopher J. Cramer and Donald G. Truhlar   : smd solvation model
   Lars Goerigk                                  : TD-DFT with DH, B97 family of functionals
   V. Asgeirsson, H. Jonsson                     : NEB implementation
   FAccTs GmbH                                   : IRC, NEB, NEB-TS, DLPNO-Multilevel, CI-OPT
                                                   MM, QMMM, 2- and 3-layer-ONIOM, Crystal-QMMM,
                                                   LR-CPCM, SF, NACMEs, symmetry and pop. for TD-DFT,
                                                   nearIR, NL-DFT gradient (VV10), updates on ESD,
                                                   ML-optimized integration grids
   S Lehtola, MJT Oliveira, MAL Marques          : LibXC Library
   Liviu Ungur et al                             : ANISO software


 Your calculation uses the libint2 library for the computation of 2-el integrals
 For citations please refer to: http://libint.valeyev.net

 Your ORCA version has been built with support for libXC version: 5.1.0
 For citations please refer to: https://tddft.org/programs/libxc/

 This ORCA versions uses:
   CBLAS   interface :  Fast vector & matrix operations
   LAPACKE interface :  Fast linear algebra routines
   SCALAPACK package :  Parallel linear algebra routines
   Shared memory     :  Shared parallel matrices
   BLAS/LAPACK       :  OpenBLAS 0.3.15  USE64BITINT DYNAMIC_ARCH NO_AFFINITY Haswell SINGLE_THREADED
        Core in use  :  Haswell
   Copyright (c) 2011-2014, The OpenBLAS Project




***************************************
The coordinates will be read from file: 6a.xyz
***************************************


Your calculation utilizes the geometrical counterpoise correction gCP
Please cite in your paper:
H.Kruse, S. Grimme J.Chem.Phys., 136, (2012), 154101 
   

Your calculation utilizes the atom-pairwise dispersion correction
with the Becke-Johnson damping scheme (D3BJ)
Cite in your paper:
S.Grimme, S.Ehrlich, L.Goerigk, J Comput Chem, (2011), 32, 1456–1465 
S.Grimme, J.Antony, S.Ehrlich and H.Krieg, J.Chem.Phys., 132, (2010), 154104 
   

Your calculation employs the composite approach PBEh-3c.
Please cite in your paper:
S. Grimme, J. G. Brandenburg, C. Bannwarth, A. Hansen J.Chem.Phys., 143, (2015), 054107 
   

================================================================================

----- Orbital basis set information -----
Your calculation utilizes the basis: def2-mSVP

----- AuxJ basis set information -----
Your calculation utilizes the auxiliary basis: def2/J
   F. Weigend, Phys. Chem. Chem. Phys. 8, 1057 (2006).

================================================================================
                                        WARNINGS
                       Please study these warnings very carefully!
================================================================================


INFO   : the flag for use of the SHARK integral package has been found!

================================================================================
                                       INPUT FILE
================================================================================
NAME = pbeh-3c.inp
|  1> ! PBEh-3c def2/J TightSCF DefGrid3
|  2> 
|  3> %maxcore 60000
|  4> 
|  5> %pal
|  6> nprocs 4
|  7> end
|  8> 
|  9> *xyzfile 0 1 6a.xyz
| 10> 
| 11>                          ****END OF INPUT****
================================================================================

                       ****************************
                       * Single Point Calculation *
                       ****************************

---------------------------------
CARTESIAN COORDINATES (ANGSTROEM)
---------------------------------
  N      2.245007   -0.354089   -0.116332
  C      0.878167   -0.364915   -0.056797
  C      0.514378    0.983362   -0.075586
  N      1.620157    1.804952   -0.145269
  C      2.628034    0.963983   -0.168418
  C     -0.865038    1.208016   -0.012118
  N     -1.706748    0.194171    0.050598
  C     -1.209273   -1.064699    0.052908
  N      0.070270   -1.424331    0.009512
  O     -1.355880    2.451253   -0.010101
  N     -2.145693   -2.065916    0.057425
  H      3.665305    1.247271   -0.222599
  H     -3.055496   -1.804718    0.390902
  H     -1.807697   -2.968454    0.338684
  H     -2.316442    2.357296    0.033422
  H      2.840950   -1.163182   -0.126230

----------------------------
CARTESIAN COORDINATES (A.U.)
----------------------------
  NO LB      ZA    FRAG     MASS         X           Y           Z
   0 N     7.0000    0    14.007    4.242447   -0.669132   -0.219835
   1 C     6.0000    0    12.011    1.659494   -0.689589   -0.107332
   2 C     6.0000    0    12.011    0.972034    1.858285   -0.142836
   3 N     7.0000    0    14.007    3.061653    3.410865   -0.274520
   4 C     6.0000    0    12.011    4.966265    1.821664   -0.318264
   5 C     6.0000    0    12.011   -1.634685    2.282820   -0.022900
   6 N     7.0000    0    14.007   -3.225286    0.366930    0.095616
   7 C     6.0000    0    12.011   -2.285194   -2.011989    0.099981
   8 N     7.0000    0    14.007    0.132790   -2.691596    0.017975
   9 O     8.0000    0    15.999   -2.562242    4.632197   -0.019089
  10 N     7.0000    0    14.007   -4.054772   -3.904015    0.108518
  11 H     1.0000    0     1.008    6.926423    2.357000   -0.420650
  12 H     1.0000    0     1.008   -5.774051   -3.410424    0.738698
  13 H     1.0000    0     1.008   -3.416052   -5.609566    0.640020
  14 H     1.0000    0     1.008   -4.377441    4.454643    0.063159
  15 H     1.0000    0     1.008    5.368618   -2.198096   -0.238541

--------------------------------
INTERNAL COORDINATES (ANGSTROEM)
--------------------------------
 N      0   0   0     0.000000000000     0.00000000     0.00000000
 C      1   0   0     1.368178653502     0.00000000     0.00000000
 C      2   1   0     1.396619267100   104.59584700     0.00000000
 N      3   2   1     1.379351760864   111.52340480     0.03057036
 C      4   3   2     1.312852168618   103.57900777     0.02718988
 C      3   2   1     1.399031093614   114.28247143   180.42287896
 N      6   3   2     1.319200858227   120.52055364   359.61081384
 C      7   6   3     1.353602834439   118.70700133     0.03130470
 N      8   7   6     1.329829794587   127.23420809     0.63010066
 O      6   3   2     1.336625500589   120.76402438   179.42756116
 N      8   7   6     1.370889662797   115.35272798   182.89089485
 H      5   4   3     1.076623719851   124.88823272   179.92293574
 H     11   8   7     1.003580271889   115.48402404   338.47931180
 H     11   8   7     1.003954285116   115.31032284   197.94067986
 H     10   6   3     0.966127339868   105.94536328   179.68590189
 H      1   2   3     1.004926799844   125.90903918   180.33756970

---------------------------
INTERNAL COORDINATES (A.U.)
---------------------------
 N      0   0   0     0.000000000000     0.00000000     0.00000000
 C      1   0   0     2.585482957396     0.00000000     0.00000000
 C      2   1   0     2.639227928176   104.59584700     0.00000000
 N      3   2   1     2.606597070374   111.52340480     0.03057036
 C      4   3   2     2.480931053013   103.57900777     0.02718988
 C      3   2   1     2.643785619770   114.28247143   180.42287896
 N      6   3   2     2.492928337683   120.52055364   359.61081384
 C      7   6   3     2.557938651190   118.70700133     0.03130470
 N      8   7   6     2.513014116498   127.23420809     0.63010066
 O      6   3   2     2.525856139728   120.76402438   179.42756116
 N      8   7   6     2.590606022510   115.35272798   182.89089485
 H      5   4   3     2.034523979803   124.88823272   179.92293574
 H     11   8   7     1.896491867276   115.48402404   338.47931180
 H     11   8   7     1.897198649846   115.31032284   197.94067986
 H     10   6   3     1.825716082845   105.94536328   179.68590189
 H      1   2   3     1.899036436343   125.90903918   180.33756970

---------------------
BASIS SET INFORMATION
---------------------
There are 4 groups of distinct atoms

 Group   1 Type N   : 8s4p1d contracted to 4s2p1d pattern {5111/31/1}
 Group   2 Type C   : 8s4p1d contracted to 4s2p1d pattern {5111/31/1}
 Group   3 Type O   : 8s4p1d contracted to 4s2p1d pattern {5111/31/1}
 Group   4 Type H   : 4s contracted to 2s pattern {31}

Atom   0N    basis set group =>   1
Atom   1C    basis set group =>   2
Atom   2C    basis set group =>   2
Atom   3N    basis set group =>   1
Atom   4C    basis set group =>   2
Atom   5C    basis set group =>   2
Atom   6N    basis set group =>   1
Atom   7C    basis set group =>   2
Atom   8N    basis set group =>   1
Atom   9O    basis set group =>   3
Atom  10N    basis set group =>   1
Atom  11H    basis set group =>   4
Atom  12H    basis set group =>   4
Atom  13H    basis set group =>   4
Atom  14H    basis set group =>   4
Atom  15H    basis set group =>   4
---------------------------------
AUXILIARY/J BASIS SET INFORMATION
---------------------------------
There are 4 groups of distinct atoms

 Group   1 Type N   : 12s5p4d2f1g contracted to 6s4p3d1f1g pattern {711111/2111/211/2/1}
 Group   2 Type C   : 12s5p4d2f1g contracted to 6s4p3d1f1g pattern {711111/2111/211/2/1}
 Group   3 Type O   : 12s5p4d2f1g contracted to 6s4p3d1f1g pattern {711111/2111/211/2/1}
 Group   4 Type H   : 5s2p1d contracted to 3s1p1d pattern {311/2/1}

Atom   0N    basis set group =>   1
Atom   1C    basis set group =>   2
Atom   2C    basis set group =>   2
Atom   3N    basis set group =>   1
Atom   4C    basis set group =>   2
Atom   5C    basis set group =>   2
Atom   6N    basis set group =>   1
Atom   7C    basis set group =>   2
Atom   8N    basis set group =>   1
Atom   9O    basis set group =>   3
Atom  10N    basis set group =>   1
Atom  11H    basis set group =>   4
Atom  12H    basis set group =>   4
Atom  13H    basis set group =>   4
Atom  14H    basis set group =>   4
Atom  15H    basis set group =>   4


           ************************************************************
           *        Program running with 4 parallel MPI-processes     *
           *              working on a common directory               *
           ************************************************************
------------------------------------------------------------------------------
                           ORCA GTO INTEGRAL CALCULATION
                           -- RI-GTO INTEGRALS CHOSEN --
------------------------------------------------------------------------------
------------------------------------------------------------------------------
                   ___                                                        
                  /   \      - P O W E R E D   B Y -                         
                 /     \                                                     
                 |  |  |   _    _      __       _____    __    __             
                 |  |  |  | |  | |    /  \     |  _  \  |  |  /  |          
                  \  \/   | |  | |   /    \    | | | |  |  | /  /          
                 / \  \   | |__| |  /  /\  \   | |_| |  |  |/  /          
                |  |  |   |  __  | /  /__\  \  |    /   |      \           
                |  |  |   | |  | | |   __   |  |    \   |  |\   \          
                \     /   | |  | | |  |  |  |  | |\  \  |  | \   \       
                 \___/    |_|  |_| |__|  |__|  |_| \__\ |__|  \__/        
                                                                              
                      - O R C A' S   B I G   F R I E N D -                    
                                      &                                       
                       - I N T E G R A L  F E E D E R -                       
                                                                              
 v1 FN, 2020, v2 2021                                                         
------------------------------------------------------------------------------


Reading SHARK input file pbeh-3c.SHARKINP.tmp ... ok
----------------------
SHARK INTEGRAL PACKAGE
----------------------

Number of atoms                             ...     16
Number of basis functions                   ...    175
Number of shells                            ...     87
Maximum angular momentum                    ...      2
Integral batch strategy                     ... SHARK/LIBINT Hybrid
RI-J (if used) integral strategy            ... SPLIT-RIJ (Revised 2003 algorithm where possible)
Printlevel                                  ...      1
Contraction scheme used                     ... SEGMENTED contraction
Coulomb Range Separation                    ... NOT USED
Exchange Range Separation                   ... NOT USED
Finite Nucleus Model                        ... NOT USED
Auxiliary Coulomb fitting basis             ... AVAILABLE
   # of basis functions in Aux-J            ...    594
   # of shells in Aux-J                     ...    190
   Maximum angular momentum in Aux-J        ...      4
Auxiliary J/K fitting basis                 ... NOT available
Auxiliary Correlation fitting basis         ... NOT available
Auxiliary 'external' fitting basis          ... NOT available
Integral threshold                          ...     2.500000e-11
Primitive cut-off                           ...     2.500000e-12
Primitive pair pre-selection threshold      ...     2.500000e-12

Calculating pre-screening integrals         ... done (  0.2 sec) Dimension = 87
Organizing shell pair data                  ... done (  0.3 sec)
Shell pair information
Total number of shell pairs                 ...      3828
Shell pairs after pre-screening             ...      3254
Total number of primitive shell pairs       ...     13524
Primitive shell pairs kept                  ...      8004
          la=0 lb=0:   1125 shell pairs
          la=1 lb=0:   1091 shell pairs
          la=1 lb=1:    248 shell pairs
          la=2 lb=0:    492 shell pairs
          la=2 lb=1:    234 shell pairs
          la=2 lb=2:     64 shell pairs

Calculating one electron integrals          ... done (  0.0 sec)
Calculating RI/J V-Matrix + Cholesky decomp.... done (  0.7 sec)
Calculating Nuclear repulsion               ... done (  0.2 sec) ENN=    597.523269872833 Eh

SHARK setup successfully completed in   3.4 seconds

Maximum memory used throughout the entire GTOINT-calculation: 11.9 MB


           ************************************************************
           *        Program running with 4 parallel MPI-processes     *
           *              working on a common directory               *
           ************************************************************
-------------------------------------------------------------------------------
                                 ORCA SCF
-------------------------------------------------------------------------------

------------
SCF SETTINGS
------------
Hamiltonian:
 Density Functional     Method          .... DFT(GTOs)
 Exchange Functional    Exchange        .... PBE
   PBE kappa parameter   XKappa         ....  1.024500
   PBE mue parameter    XMuePBE         ....  0.123457
 Correlation Functional Correlation     .... PBE
   PBE beta parameter  CBetaPBE         ....  0.030000
 LDA part of GGA corr.  LDAOpt          .... PW91-LDA
 Gradients option       PostSCFGGA      .... off
 Hybrid DFT is turned on
   Fraction HF Exchange ScalHFX         ....  0.420000
   Scaling of DF-GGA-X  ScalDFX         ....  0.580000
   Scaling of DF-GGA-C  ScalDFC         ....  1.000000
   Scaling of DF-LDA-C  ScalLDAC        ....  1.000000
   Perturbative correction              ....  0.000000
   Density functional embedding theory  .... OFF
 RI-approximation to the Coulomb term is turned on
   Number of AuxJ basis functions       .... 594
   RIJ-ON(X) (HFX calculated with O(N)) .... on
   Number of AuxJ basis functions       .... 594
   RIJ-COSX (HFX calculated with COS-X)).... on


General Settings:
 Integral files         IntName         .... pbeh-3c
 Hartree-Fock type      HFTyp           .... RHF
 Total Charge           Charge          ....    0
 Multiplicity           Mult            ....    1
 Number of Electrons    NEL             ....   78
 Basis Dimension        Dim             ....  175
 Nuclear Repulsion      ENuc            ....    597.5232698728 Eh

Convergence Acceleration:
 DIIS                   CNVDIIS         .... on
   Start iteration      DIISMaxIt       ....    12
   Startup error        DIISStart       ....  0.200000
   # of expansion vecs  DIISMaxEq       ....     5
   Bias factor          DIISBfac        ....   1.050
   Max. coefficient     DIISMaxC        ....  10.000
 Trust-Rad. Augm. Hess. CNVTRAH         .... auto
   Auto Start mean grad. ratio tolernc. ....  1.125000
   Auto Start start iteration           ....    20
   Auto Start num. interpolation iter.  ....    10
   Max. Number of Micro iterations      ....    16
   Max. Number of Macro iterations      .... Maxiter - #DIIS iter
   Number of Davidson start vectors     ....     2
   Converg. threshold I  (grad. norm)   ....   1.000e-05
   Converg. threshold II (energy diff.) ....   1.000e-08
   Grad. Scal. Fac. for Micro threshold ....   0.100
   Minimum threshold for Micro iter.    ....   0.010
   NR start threshold (gradient norm)   ....   0.001
   Initial trust radius                 ....   0.400
   Minimum AH scaling param. (alpha)    ....   1.000
   Maximum AH scaling param. (alpha)    .... 1000.000
   Orbital update algorithm             .... Taylor
   White noise on init. David. guess    .... on
   Maximum white noise                  ....   0.010
   Quad. conv. algorithm                .... NR
   COSX micro iterations for RIJONX calc.... off
 SOSCF                  CNVSOSCF        .... on
   Start iteration      SOSCFMaxIt      ....   150
   Startup grad/error   SOSCFStart      ....  0.003300
 Level Shifting         CNVShift        .... on
   Level shift para.    LevelShift      ....    0.2500
   Turn off err/grad.   ShiftErr        ....    0.0010
 Zerner damping         CNVZerner       .... off
 Static damping         CNVDamp         .... on
   Fraction old density DampFac         ....    0.7000
   Max. Damping (<1)    DampMax         ....    0.9800
   Min. Damping (>=0)   DampMin         ....    0.0000
   Turn off err/grad.   DampErr         ....    0.1000
 Fernandez-Rico         CNVRico         .... off

SCF Procedure:
 Maximum # iterations   MaxIter         ....   125
 SCF integral mode      SCFMode         .... Direct
   Integral package                     .... SHARK and LIBINT hybrid scheme
 Reset frequency        DirectResetFreq ....    20
 Integral Threshold     Thresh          ....  2.500e-11 Eh
 Primitive CutOff       TCut            ....  2.500e-12 Eh

Convergence Tolerance:
 Convergence Check Mode ConvCheckMode   .... Total+1el-Energy
 Convergence forced     ConvForced      .... 0
 Energy Change          TolE            ....  1.000e-08 Eh
 1-El. energy change                    ....  1.000e-05 Eh
 Orbital Gradient       TolG            ....  1.000e-05
 Orbital Rotation angle TolX            ....  1.000e-05
 DIIS Error             TolErr          ....  5.000e-07


Diagonalization of the overlap matrix:
Smallest eigenvalue                        ... 1.455e-03
Time for diagonalization                   ...    0.005 sec
Threshold for overlap eigenvalues          ... 1.000e-08
Number of eigenvalues below threshold      ... 0
Time for construction of square roots      ...    0.300 sec
Total time needed                          ...    0.472 sec

--------------------------------
INITIAL GUESS: MINIMAL BASIS EHT
--------------------------------
The minimal basis has 60 functions
EHT matrix was diagonalized
Basis set overlap was calculated now projecting the orbitals
Using GuessMode=FMatrix for the initial guess
C*T matrix was formed
Effective Fockian was calculated
Effective Fockian was diagonalized
Initial density was built
                      ------------------
                      INITIAL GUESS DONE
                      ------------------
-------------------
DFT GRID GENERATION
-------------------

General Integration Accuracy     IntAcc      ... 4.959
Radial Grid Type                 RadialGrid  ... OptM3 with GC (2021)
Angular Grid (max. ang.)         AngularGrid ... 6 (Lebedev-590)
Angular grid pruning method      GridPruning ... 4 (adaptive)
Weight generation scheme         WeightScheme... Becke
Basis function cutoff            BFCut       ... 1.0000e-11
Integration weight cutoff        WCut        ... 1.0000e-14
Angular grids for H and He will be reduced by one unit
Partially contracted basis set               ... off
Rotationally invariant grid construction     ... off

Total number of grid points                  ...   200996
Total number of batches                      ...     3149
Average number of points per batch           ...       63
Average number of grid points per atom       ...    12562
Time for grid setup =    4.526 sec

--------------------
COSX GRID GENERATION
--------------------

GRIDX 1
-------
General Integration Accuracy     IntAcc      ... 4.020
Radial Grid Type                 RadialGrid  ... OptM3 with GC (2021)
Angular Grid (max. ang.)         AngularGrid ... 2 (Lebedev-110)
Angular grid pruning method      GridPruning ... 4 (adaptive)
Weight generation scheme         WeightScheme... Becke
Basis function cutoff            BFCut       ... 1.0000e-11
Integration weight cutoff        WCut        ... 1.0000e-14
Angular grids for H and He will be reduced by one unit
Partially contracted basis set               ... on
Rotationally invariant grid construction     ... off

Total number of grid points                  ...    23651
Total number of batches                      ...      377
Average number of points per batch           ...       62
Average number of grid points per atom       ...     1478
UseSFitting                                  ... on

GRIDX 2
-------
General Integration Accuracy     IntAcc      ... 4.338
Radial Grid Type                 RadialGrid  ... OptM3 with GC (2021)
Angular Grid (max. ang.)         AngularGrid ... 3 (Lebedev-194)
Angular grid pruning method      GridPruning ... 4 (adaptive)
Weight generation scheme         WeightScheme... Becke
Basis function cutoff            BFCut       ... 1.0000e-11
Integration weight cutoff        WCut        ... 1.0000e-14
Angular grids for H and He will be reduced by one unit
Partially contracted basis set               ... on
Rotationally invariant grid construction     ... off

Total number of grid points                  ...    52170
Total number of batches                      ...      824
Average number of points per batch           ...       63
Average number of grid points per atom       ...     3261
UseSFitting                                  ... on

GRIDX 3
-------
General Integration Accuracy     IntAcc      ... 4.871
Radial Grid Type                 RadialGrid  ... OptM3 with GC (2021)
Angular Grid (max. ang.)         AngularGrid ... 4 (Lebedev-302)
Angular grid pruning method      GridPruning ... 4 (adaptive)
Weight generation scheme         WeightScheme... Becke
Basis function cutoff            BFCut       ... 1.0000e-11
Integration weight cutoff        WCut        ... 1.0000e-14
Angular grids for H and He will be reduced by one unit
Partially contracted basis set               ... on
Rotationally invariant grid construction     ... off

Total number of grid points                  ...    95989
Total number of batches                      ...     1508
Average number of points per batch           ...       63
Average number of grid points per atom       ...     5999
UseSFitting                                  ... on

Time for X-Grid setup             =    6.288 sec

--------------
SCF ITERATIONS
--------------
ITER       Energy         Delta-E        Max-DP      RMS-DP      [F,P]     Damp
               ***  Starting incremental Fock matrix formation  ***
  0   -539.4878789814   0.000000000000 0.19264265  0.00675692  0.4401455 0.7000
  1   -540.1983441710  -0.710465189593 0.11884835  0.00435953  0.2957031 0.7000
  2   -540.5700943845  -0.371750213548 0.07314719  0.00273088  0.2092536 0.7000
                               ***Turning on DIIS***
  3   -540.8163167549  -0.246222370357 0.05297757  0.00185378  0.1470287 0.7000
  4   -540.9923451201  -0.176028365209 0.04526768  0.00136678  0.1038250 0.7000
  5   -541.1173972448  -0.125052124709 0.10799835  0.00329392  0.0723539 0.0000
  6   -541.4151949385  -0.297797693712 0.00547151  0.00015397  0.0044905 0.0000
                      *** Initiating the SOSCF procedure ***
                           *** Shutting down DIIS ***
                      *** Re-Reading the Fockian *** 
                      *** Removing any level shift *** 
ITER      Energy       Delta-E        Grad      Rot      Max-DP    RMS-DP
  7   -541.41536853  -0.0001735900  0.000503  0.000503  0.001618  0.000058
               *** Restarting incremental Fock matrix formation ***
  8   -541.41539598  -0.0000274490  0.000285  0.000797  0.001490  0.000042
  9   -541.41540293  -0.0000069514  0.000107  0.000597  0.000522  0.000022
 10   -541.41540289   0.0000000355  0.000161  0.000205  0.000268  0.000009
 11   -541.41540367  -0.0000007771  0.000024  0.000047  0.000088  0.000002
                 **** Energy Check signals convergence ****
              ***Rediagonalizing the Fockian in SOSCF/NRSCF***

               *****************************************************
               *                     SUCCESS                       *
               *           SCF CONVERGED AFTER  12 CYCLES          *
               *****************************************************

Old exchange energy                            =    -29.002455659 Eh
New exchange energy                            =    -29.002461800 Eh
Exchange energy change after final integration =     -0.000006141 Eh
Total energy after final integration           =   -541.415409814 Eh
Final COS-X integration done in                =     5.645 sec

----------------
TOTAL SCF ENERGY
----------------

Total Energy       :         -541.41540981 Eh          -14732.66230 eV

Components:
Nuclear Repulsion  :          597.52326987 Eh           16259.43479 eV
Electronic Energy  :        -1138.93867969 Eh          -30992.09708 eV
One Electron Energy:        -1921.86172321 Eh          -52296.51619 eV
Two Electron Energy:          782.92304352 Eh           21304.41911 eV
Max COSX asymmetry :            0.00000152 Eh               0.00004 eV

Virial components:
Potential Energy   :        -1078.94800877 Eh          -29359.66794 eV
Kinetic Energy     :          537.53259896 Eh           14627.00564 eV
Virial Ratio       :            2.00722340


DFT components:
N(Alpha)           :       38.999999270784 electrons
N(Beta)            :       38.999999270784 electrons
N(Total)           :       77.999998541568 electrons
E(X)               :      -38.628337247774 Eh       
E(C)               :       -3.505159017068 Eh       
E(XC)              :      -42.133496264842 Eh       
DFET-embed. en.    :        0.000000000000 Eh       

---------------
SCF CONVERGENCE
---------------

  Last Energy change         ...   -2.7247e-09  Tolerance :   1.0000e-08
  Last MAX-Density change    ...    1.5543e-15  Tolerance :   1.0000e-07
  Last RMS-Density change    ...    4.3167e-17  Tolerance :   5.0000e-09
  Last Orbital Gradient      ...    2.3527e-05  Tolerance :   1.0000e-05
  Last Orbital Rotation      ...    2.3624e-05  Tolerance :   1.0000e-05

             **** THE GBW FILE WAS UPDATED (pbeh-3c.gbw) ****
             **** DENSITY pbeh-3c.scfp WAS UPDATED ****
             **** ENERGY FILE WAS UPDATED (pbeh-3c.en.tmp) ****
             **** THE GBW FILE WAS UPDATED (pbeh-3c.gbw) ****
             **** DENSITY pbeh-3c.scfp WAS UPDATED ****
----------------
ORBITAL ENERGIES
----------------

  NO   OCC          E(Eh)            E(eV) 
   0   2.0000     -19.537892      -531.6531 
   1   2.0000     -14.702901      -400.0863 
   2   2.0000     -14.645721      -398.5303 
   3   2.0000     -14.633622      -398.2011 
   4   2.0000     -14.632885      -398.1810 
   5   2.0000     -14.631027      -398.1305 
   6   2.0000     -10.559199      -287.3304 
   7   2.0000     -10.553804      -287.1836 
   8   2.0000     -10.522500      -286.3318 
   9   2.0000     -10.515251      -286.1345 
  10   2.0000     -10.464238      -284.7464 
  11   2.0000      -1.201719       -32.7004 
  12   2.0000      -1.144873       -31.1536 
  13   2.0000      -1.097994       -29.8779 
  14   2.0000      -0.999830       -27.2068 
  15   2.0000      -0.996089       -27.1050 
  16   2.0000      -0.968616       -26.3574 
  17   2.0000      -0.850307       -23.1380 
  18   2.0000      -0.757988       -20.6259 
  19   2.0000      -0.721750       -19.6398 
  20   2.0000      -0.704492       -19.1702 
  21   2.0000      -0.660780       -17.9807 
  22   2.0000      -0.650673       -17.7057 
  23   2.0000      -0.590199       -16.0601 
  24   2.0000      -0.561948       -15.2914 
  25   2.0000      -0.540265       -14.7014 
  26   2.0000      -0.537234       -14.6189 
  27   2.0000      -0.520683       -14.1685 
  28   2.0000      -0.500647       -13.6233 
  29   2.0000      -0.486905       -13.2494 
  30   2.0000      -0.460628       -12.5343 
  31   2.0000      -0.454659       -12.3719 
  32   2.0000      -0.393636       -10.7114 
  33   2.0000      -0.362090        -9.8530 
  34   2.0000      -0.349312        -9.5053 
  35   2.0000      -0.345818        -9.4102 
  36   2.0000      -0.315071        -8.5735 
  37   2.0000      -0.311466        -8.4754 
  38   2.0000      -0.250319        -6.8115 
  39   0.0000       0.008780         0.2389 
  40   0.0000       0.042125         1.1463 
  41   0.0000       0.079972         2.1761 
  42   0.0000       0.125059         3.4030 
  43   0.0000       0.139952         3.8083 
  44   0.0000       0.149823         4.0769 
  45   0.0000       0.186025         5.0620 
  46   0.0000       0.195271         5.3136 
  47   0.0000       0.221486         6.0269 
  48   0.0000       0.226582         6.1656 
  49   0.0000       0.264813         7.2059 
  50   0.0000       0.283998         7.7280 
  51   0.0000       0.308797         8.4028 
  52   0.0000       0.330993         9.0068 
  53   0.0000       0.350464         9.5366 
  54   0.0000       0.371574        10.1110 
  55   0.0000       0.383358        10.4317 
  56   0.0000       0.416958        11.3460 
  57   0.0000       0.445219        12.1150 
  58   0.0000       0.477484        12.9930 
  59   0.0000       0.483364        13.1530 
  60   0.0000       0.487151        13.2561 
  61   0.0000       0.531717        14.4687 
  62   0.0000       0.541684        14.7400 
  63   0.0000       0.554858        15.0984 
  64   0.0000       0.582148        15.8411 
  65   0.0000       0.596968        16.2443 
  66   0.0000       0.615662        16.7530 
  67   0.0000       0.618664        16.8347 
  68   0.0000       0.627261        17.0686 
  69   0.0000       0.654514        17.8102 
  70   0.0000       0.681693        18.5498 
  71   0.0000       0.699845        19.0438 
  72   0.0000       0.710685        19.3387 
  73   0.0000       0.725176        19.7330 
  74   0.0000       0.764030        20.7903 
  75   0.0000       0.783416        21.3178 
  76   0.0000       0.829063        22.5600 
  77   0.0000       0.843208        22.9448 
  78   0.0000       0.879402        23.9297 
  79   0.0000       0.886405        24.1203 
  80   0.0000       0.897288        24.4164 
  81   0.0000       0.903591        24.5879 
  82   0.0000       0.922853        25.1121 
  83   0.0000       0.947212        25.7749 
  84   0.0000       0.950332        25.8598 
  85   0.0000       0.970086        26.3974 
  86   0.0000       0.973329        26.4856 
  87   0.0000       0.992812        27.0158 
  88   0.0000       1.024826        27.8869 
  89   0.0000       1.031932        28.0803 
  90   0.0000       1.041527        28.3414 
  91   0.0000       1.079291        29.3690 
  92   0.0000       1.089582        29.6490 
  93   0.0000       1.098647        29.8957 
  94   0.0000       1.110038        30.2057 
  95   0.0000       1.121244        30.5106 
  96   0.0000       1.182112        32.1669 
  97   0.0000       1.228633        33.4328 
  98   0.0000       1.252009        34.0689 
  99   0.0000       1.263723        34.3877 
 100   0.0000       1.298298        35.3285 
 101   0.0000       1.342157        36.5220 
 102   0.0000       1.355420        36.8829 
 103   0.0000       1.376838        37.4657 
 104   0.0000       1.400378        38.1062 
 105   0.0000       1.421759        38.6880 
 106   0.0000       1.450167        39.4611 
 107   0.0000       1.452609        39.5275 
 108   0.0000       1.471269        40.0353 
 109   0.0000       1.520650        41.3790 
 110   0.0000       1.563712        42.5508 
 111   0.0000       1.585815        43.1522 
 112   0.0000       1.653366        44.9904 
 113   0.0000       1.666470        45.3470 
 114   0.0000       1.730987        47.1025 
 115   0.0000       1.753699        47.7206 
 116   0.0000       1.772088        48.2210 
 117   0.0000       1.772983        48.2453 
 118   0.0000       1.796210        48.8774 
 119   0.0000       1.831635        49.8413 
 120   0.0000       1.863298        50.7029 
 121   0.0000       1.891879        51.4806 
 122   0.0000       1.894418        51.5497 
 123   0.0000       1.955273        53.2057 
 124   0.0000       1.984086        53.9897 
 125   0.0000       2.025167        55.1076 
 126   0.0000       2.048455        55.7413 
 127   0.0000       2.070859        56.3509 
 128   0.0000       2.104420        57.2642 
 129   0.0000       2.129667        57.9512 
 130   0.0000       2.173803        59.1522 
 131   0.0000       2.218840        60.3777 
 132   0.0000       2.233316        60.7716 
 133   0.0000       2.242834        61.0306 
 134   0.0000       2.265978        61.6604 
 135   0.0000       2.300855        62.6095 
 136   0.0000       2.315805        63.0163 
 137   0.0000       2.349139        63.9233 
 138   0.0000       2.369093        64.4663 
 139   0.0000       2.405916        65.4683 
 140   0.0000       2.456972        66.8576 
 141   0.0000       2.458995        66.9127 
 142   0.0000       2.480139        67.4880 
 143   0.0000       2.508614        68.2629 
 144   0.0000       2.541368        69.1541 
 145   0.0000       2.568024        69.8795 
 146   0.0000       2.575746        70.0896 
 147   0.0000       2.596623        70.6577 
 148   0.0000       2.616705        71.2042 
 149   0.0000       2.649060        72.0846 
 150   0.0000       2.726237        74.1847 
 151   0.0000       2.741284        74.5941 
 152   0.0000       2.744955        74.6940 
 153   0.0000       2.772254        75.4369 
 154   0.0000       2.839675        77.2715 
 155   0.0000       2.845049        77.4177 
 156   0.0000       2.882703        78.4423 
 157   0.0000       2.936552        79.9076 
 158   0.0000       3.021900        82.2301 
 159   0.0000       3.067186        83.4624 
 160   0.0000       3.218267        87.5735 
 161   0.0000       3.294509        89.6481 
 162   0.0000       3.353482        91.2529 
 163   0.0000       3.586983        97.6068 
 164   0.0000      13.644186       371.2772 
 165   0.0000      13.809313       375.7705 
 166   0.0000      13.954137       379.7114 
 167   0.0000      14.134319       384.6144 
 168   0.0000      14.415119       392.2553 
 169   0.0000      19.217906       522.9458 
 170   0.0000      19.328469       525.9544 
 171   0.0000      19.465069       529.6715 
 172   0.0000      19.520631       531.1834 
 173   0.0000      19.620802       533.9092 
 174   0.0000      25.700669       699.3508 

                    ********************************
                    * MULLIKEN POPULATION ANALYSIS *
                    ********************************

-----------------------
MULLIKEN ATOMIC CHARGES
-----------------------
   0 N :   -0.662723
   1 C :    0.486976
   2 C :   -0.000071
   3 N :   -0.373729
   4 C :    0.103948
   5 C :    0.452831
   6 N :   -0.506419
   7 C :    0.543327
   8 N :   -0.461224
   9 O :   -0.565292
  10 N :   -0.798218
  11 H :    0.241674
  12 H :    0.360784
  13 H :    0.360885
  14 H :    0.442298
  15 H :    0.374953
Sum of atomic charges:    0.0000000

--------------------------------
MULLIKEN REDUCED ORBITAL CHARGES
--------------------------------
  0 N s       :     3.589914  s :     3.589914
      pz      :     1.608345  p :     4.033704
      px      :     1.210229
      py      :     1.215130
      dz2     :     0.004491  d :     0.039105
      dxz     :     0.006113
      dyz     :     0.004672
      dx2y2   :     0.010338
      dxy     :     0.013491
  1 C s       :     2.940476  s :     2.940476
      pz      :     0.933957  p :     2.484009
      px      :     0.652959
      py      :     0.897093
      dz2     :     0.005361  d :     0.088539
      dxz     :     0.016304
      dyz     :     0.012730
      dx2y2   :     0.034916
      dxy     :     0.019228
  2 C s       :     3.118917  s :     3.118917
      pz      :     1.151514  p :     2.820358
      px      :     0.796793
      py      :     0.872050
      dz2     :     0.004816  d :     0.060796
      dxz     :     0.008933
      dyz     :     0.007111
      dx2y2   :     0.024276
      dxy     :     0.015660
  3 N s       :     3.629651  s :     3.629651
      pz      :     1.175849  p :     3.697012
      px      :     0.999970
      py      :     1.521193
      dz2     :     0.005153  d :     0.047066
      dxz     :     0.007760
      dyz     :     0.009151
      dx2y2   :     0.006508
      dxy     :     0.018495
  4 C s       :     3.109983  s :     3.109983
      pz      :     0.982924  p :     2.707092
      px      :     0.962720
      py      :     0.761448
      dz2     :     0.005762  d :     0.078977
      dxz     :     0.006015
      dyz     :     0.015001
      dx2y2   :     0.032389
      dxy     :     0.019810
  5 C s       :     2.968678  s :     2.968678
      pz      :     0.840593  p :     2.471245
      px      :     0.949265
      py      :     0.681387
      dz2     :     0.006000  d :     0.107246
      dxz     :     0.013073
      dyz     :     0.021273
      dx2y2   :     0.036080
      dxy     :     0.030821
  6 N s       :     3.570444  s :     3.570444
      pz      :     1.323334  p :     3.898404
      px      :     1.541650
      py      :     1.033420
      dz2     :     0.004812  d :     0.037570
      dxz     :     0.006789
      dyz     :     0.005447
      dx2y2   :     0.006230
      dxy     :     0.014292
  7 C s       :     2.903224  s :     2.903224
      pz      :     0.856413  p :     2.442811
      px      :     0.803353
      py      :     0.783045
      dz2     :     0.005727  d :     0.110639
      dxz     :     0.018716
      dyz     :     0.016465
      dx2y2   :     0.028770
      dxy     :     0.040960
  8 N s       :     3.573169  s :     3.573169
      pz      :     1.302442  p :     3.846442
      px      :     1.054644
      py      :     1.489357
      dz2     :     0.004987  d :     0.041613
      dxz     :     0.006244
      dyz     :     0.007540
      dx2y2   :     0.009608
      dxy     :     0.013234
  9 O s       :     3.803193  s :     3.803193
      pz      :     1.819556  p :     4.729690
      px      :     1.390986
      py      :     1.519148
      dz2     :     0.005103  d :     0.032409
      dxz     :     0.000640
      dyz     :     0.005995
      dx2y2   :     0.015431
      dxy     :     0.005240
 10 N s       :     3.598610  s :     3.598610
      pz      :     1.728156  p :     4.169538
      px      :     1.224934
      py      :     1.216448
      dz2     :     0.002813  d :     0.030071
      dxz     :     0.005998
      dyz     :     0.005208
      dx2y2   :     0.007506
      dxy     :     0.008545
 11 H s       :     0.758326  s :     0.758326
 12 H s       :     0.639216  s :     0.639216
 13 H s       :     0.639115  s :     0.639115
 14 H s       :     0.557702  s :     0.557702
 15 H s       :     0.625047  s :     0.625047


                     *******************************
                     * LOEWDIN POPULATION ANALYSIS *
                     *******************************

----------------------
LOEWDIN ATOMIC CHARGES
----------------------
   0 N :   -0.156476
   1 C :    0.065337
   2 C :   -0.114380
   3 N :   -0.160442
   4 C :   -0.018937
   5 C :    0.131277
   6 N :   -0.247936
   7 C :    0.113625
   8 N :   -0.230220
   9 O :   -0.264785
  10 N :   -0.369506
  11 H :    0.134211
  12 H :    0.255047
  13 H :    0.255003
  14 H :    0.334992
  15 H :    0.273190

-------------------------------
LOEWDIN REDUCED ORBITAL CHARGES
-------------------------------
  0 N s       :     3.090226  s :     3.090226
      pz      :     1.554276  p :     3.975047
      px      :     1.210471
      py      :     1.210301
      dz2     :     0.006563  d :     0.091202
      dxz     :     0.012648
      dyz     :     0.009379
      dx2y2   :     0.030310
      dxy     :     0.032302
  1 C s       :     2.802865  s :     2.802865
      pz      :     0.932545  p :     2.928740
      px      :     0.929592
      py      :     1.066603
      dz2     :     0.012437  d :     0.203059
      dxz     :     0.033032
      dyz     :     0.025529
      dx2y2   :     0.085483
      dxy     :     0.046578
  2 C s       :     2.825978  s :     2.825978
      pz      :     1.110820  p :     3.142057
      px      :     1.015411
      py      :     1.015826
      dz2     :     0.010171  d :     0.146345
      dxz     :     0.016693
      dyz     :     0.014189
      dx2y2   :     0.063916
      dxy     :     0.041376
  3 N s       :     3.229867  s :     3.229867
      pz      :     1.172828  p :     3.834726
      px      :     1.124671
      py      :     1.537227
      dz2     :     0.008828  d :     0.095849
      dxz     :     0.018542
      dyz     :     0.010437
      dx2y2   :     0.015557
      dxy     :     0.042485
  4 C s       :     2.874769  s :     2.874769
      pz      :     0.984447  p :     2.975746
      px      :     1.064697
      py      :     0.926602
      dz2     :     0.010957  d :     0.168422
      dxz     :     0.008686
      dyz     :     0.031593
      dx2y2   :     0.071888
      dxy     :     0.045299
  5 C s       :     2.809957  s :     2.809957
      pz      :     0.844566  p :     2.818277
      px      :     1.057214
      py      :     0.916498
      dz2     :     0.013952  d :     0.240489
      dxz     :     0.025897
      dyz     :     0.042778
      dx2y2   :     0.085019
      dxy     :     0.072842
  6 N s       :     3.193589  s :     3.193589
      pz      :     1.299698  p :     3.972378
      px      :     1.539381
      py      :     1.133299
      dz2     :     0.009190  d :     0.081968
      dxz     :     0.007391
      dyz     :     0.012720
      dx2y2   :     0.017792
      dxy     :     0.034875
  7 C s       :     2.791731  s :     2.791731
      pz      :     0.858188  p :     2.848545
      px      :     1.006678
      py      :     0.983679
      dz2     :     0.012721  d :     0.246100
      dxz     :     0.037001
      dyz     :     0.032788
      dx2y2   :     0.065040
      dxy     :     0.098550
  8 N s       :     3.196520  s :     3.196520
      pz      :     1.287622  p :     3.945372
      px      :     1.160786
      py      :     1.496964
      dz2     :     0.009326  d :     0.088328
      dxz     :     0.013360
      dyz     :     0.009384
      dx2y2   :     0.024775
      dxy     :     0.031483
  9 O s       :     3.483585  s :     3.483585
      pz      :     1.800879  p :     4.724873
      px      :     1.380677
      py      :     1.543317
      dz2     :     0.007532  d :     0.056327
      dxz     :     0.001563
      dyz     :     0.008773
      dx2y2   :     0.027062
      dxy     :     0.011396
 10 N s       :     3.165956  s :     3.165956
      pz      :     1.698545  p :     4.144598
      px      :     1.226416
      py      :     1.219638
      dz2     :     0.004226  d :     0.058952
      dxz     :     0.009067
      dyz     :     0.008062
      dx2y2   :     0.018204
      dxy     :     0.019393
 11 H s       :     0.865789  s :     0.865789
 12 H s       :     0.744953  s :     0.744953
 13 H s       :     0.744997  s :     0.744997
 14 H s       :     0.665008  s :     0.665008
 15 H s       :     0.726810  s :     0.726810


                      *****************************
                      * MAYER POPULATION ANALYSIS *
                      *****************************

  NA   - Mulliken gross atomic population
  ZA   - Total nuclear charge
  QA   - Mulliken gross atomic charge
  VA   - Mayer's total valence
  BVA  - Mayer's bonded valence
  FA   - Mayer's free valence

  ATOM       NA         ZA         QA         VA         BVA        FA
  0 N      7.6627     7.0000    -0.6627     3.1706     3.1706     0.0000
  1 C      5.5130     6.0000     0.4870     3.7413     3.7413     0.0000
  2 C      6.0001     6.0000    -0.0001     3.8476     3.8476     0.0000
  3 N      7.3737     7.0000    -0.3737     3.0945     3.0945     0.0000
  4 C      5.8961     6.0000     0.1039     3.7941     3.7941     0.0000
  5 C      5.5472     6.0000     0.4528     3.9809     3.9809    -0.0000
  6 N      7.5064     7.0000    -0.5064     3.0861     3.0861     0.0000
  7 C      5.4567     6.0000     0.5433     4.0276     4.0276     0.0000
  8 N      7.4612     7.0000    -0.4612     3.1064     3.1064     0.0000
  9 O      8.5653     8.0000    -0.5653     2.0363     2.0363    -0.0000
 10 N      7.7982     7.0000    -0.7982     2.8852     2.8852     0.0000
 11 H      0.7583     1.0000     0.2417     0.9094     0.9094     0.0000
 12 H      0.6392     1.0000     0.3608     0.8522     0.8522     0.0000
 13 H      0.6391     1.0000     0.3609     0.8522     0.8522     0.0000
 14 H      0.5577     1.0000     0.4423     0.7964     0.7964     0.0000
 15 H      0.6250     1.0000     0.3750     0.8447     0.8447     0.0000

  Mayer bond orders larger than 0.100000
B(  0-N ,  1-C ) :   1.0710 B(  0-N ,  4-C ) :   1.1287 B(  0-N , 15-H ) :   0.8165 
B(  1-C ,  2-C ) :   1.2449 B(  1-C ,  8-N ) :   1.4327 B(  2-C ,  3-N ) :   1.2726 
B(  2-C ,  5-C ) :   1.2077 B(  3-N ,  4-C ) :   1.7133 B(  4-C , 11-H ) :   0.9091 
B(  5-C ,  6-N ) :   1.5260 B(  5-C ,  9-O ) :   1.1831 B(  6-N ,  7-C ) :   1.3666 
B(  7-C ,  8-N ) :   1.4956 B(  7-C , 10-N ) :   1.1098 B(  9-O , 14-H ) :   0.7549 
B( 10-N , 12-H ) :   0.8352 B( 10-N , 13-H ) :   0.8357 

-------
TIMINGS
-------

Total SCF time: 0 days 0 hours 1 min 47 sec 

Total time                  ....     107.892 sec
Sum of individual times     ....      98.764 sec  ( 91.5%)

Fock matrix formation       ....      82.167 sec  ( 76.2%)
  Split-RI-J                ....       8.521 sec  ( 10.4% of F)
  Chain of spheres X        ....      41.932 sec  ( 51.0% of F)
  XC integration            ....      20.591 sec  ( 25.1% of F)
    Basis function eval.    ....       4.852 sec  ( 23.6% of XC)
    Density eval.           ....       3.245 sec  ( 15.8% of XC)
    XC-Functional eval.     ....       1.597 sec  (  7.8% of XC)
    XC-Potential eval.      ....       2.331 sec  ( 11.3% of XC)
Diagonalization             ....       1.172 sec  (  1.1%)
Density matrix formation    ....       0.074 sec  (  0.1%)
Population analysis         ....       0.952 sec  (  0.9%)
Initial guess               ....       0.203 sec  (  0.2%)
Orbital Transformation      ....       0.000 sec  (  0.0%)
Orbital Orthonormalization  ....       0.000 sec  (  0.0%)
DIIS solution               ....       2.999 sec  (  2.8%)
SOSCF solution              ....       0.383 sec  (  0.4%)
Grid generation             ....      10.814 sec  ( 10.0%)

Maximum memory used throughout the entire SCF-calculation: 58.6 MB


-------------------------------------------------------------------------------
                          DFT DISPERSION CORRECTION                            
                                                                               
                              DFTD3 V3.1  Rev 1                                
                          USING Becke-Johnson damping                          
-------------------------------------------------------------------------------
The PBEh-3c composite method is recognized
Using three-body term ABC
Active option DFTDOPT                   ...         4   

molecular C6(AA) [au] = 3205.297841 


            DFT-D V3
 parameters
 s6 scaling factor         :     1.0000 
 a1 scaling factor         :     0.4860 
 s8 scaling factor         :     0.0000 
 a2 scaling factor         :     4.5000 
 Damping factor alpha9(ATM):    16.0000 
 ad hoc parameters k1-k3   :    16.0000     1.3333    -4.0000 

 Edisp/kcal,au: -5.892910594794  -0.009390949794 
 E6   /kcal   :  -5.891529567 
 E8   /kcal   :  -0.000000000 
 E6(ABC)      :  -0.001381028 
 % E8         :   0.000000000 
 % E6(ABC)    :   0.023435410 

-------------------------   ----------------
Dispersion correction           -0.009390950
-------------------------   ----------------

------------------   -----------------
gCP correction             0.029345170
------------------   -----------------

-------------------------   --------------------
FINAL SINGLE POINT ENERGY      -541.395455594274
-------------------------   --------------------


                            ***************************************
                            *     ORCA property calculations      *
                            ***************************************

                                    ---------------------
                                    Active property flags
                                    ---------------------
   (+) Dipole Moment


------------------------------------------------------------------------------
                       ORCA ELECTRIC PROPERTIES CALCULATION
------------------------------------------------------------------------------

Dipole Moment Calculation                       ... on
Quadrupole Moment Calculation                   ... off
Polarizability Calculation                      ... off
GBWName                                         ... pbeh-3c.gbw
Electron density                                ... pbeh-3c.scfp
The origin for moment calculation is the CENTER OF MASS  = ( 0.027104,  0.396994 -0.061083)

-------------
DIPOLE MOMENT
-------------
                                X             Y             Z
Electronic contribution:      0.84676       1.96209      -0.14939
Nuclear contribution   :     -0.71923      -3.15589       0.54063
                        -----------------------------------------
Total Dipole Moment    :      0.12753      -1.19380       0.39124
                        -----------------------------------------
Magnitude (a.u.)       :      1.26273
Magnitude (Debye)      :      3.20960



--------------------
Rotational spectrum 
--------------------
 
Rotational constants in cm-1:     0.064186     0.037934     0.023854 
Rotational constants in MHz :  1924.250247  1137.247442   715.111656 

 Dipole components along the rotational axes: 
x,y,z [a.u.] :    -0.462515     1.114321     0.372633 
x,y,z [Debye]:    -1.175621     2.832378     0.947158 

 

Timings for individual modules:

Sum of individual times         ...      113.213 sec (=   1.887 min)
GTO integral calculation        ...        4.091 sec (=   0.068 min)   3.6 %
SCF iterations                  ...      109.121 sec (=   1.819 min)  96.4 %
                             ****ORCA TERMINATED NORMALLY****
TOTAL RUN TIME: 0 days 0 hours 1 minutes 57 seconds 756 msec
