
                                 *****************
                                 * O   R   C   A *
                                 *****************

                                            #,                                       
                                            ###                                      
                                            ####                                     
                                            #####                                    
                                            ######                                   
                                           ########,                                 
                                     ,,################,,,,,                         
                               ,,#################################,,                 
                          ,,##########################################,,             
                       ,#########################################, ''#####,          
                    ,#############################################,,   '####,        
                  ,##################################################,,,,####,       
                ,###########''''           ''''###############################       
              ,#####''   ,,,,##########,,,,          '''####'''          '####       
            ,##' ,,,,###########################,,,                        '##       
           ' ,,###''''                  '''############,,,                           
         ,,##''                                '''############,,,,        ,,,,,,###''
      ,#''                                            '''#######################'''  
     '                                                          ''''####''''         
             ,#######,   #######,   ,#######,      ##                                
            ,#'     '#,  ##    ##  ,#'     '#,    #''#        ######   ,####,        
            ##       ##  ##   ,#'  ##            #'  '#       #        #'  '#        
            ##       ##  #######   ##           ,######,      #####,   #    #        
            '#,     ,#'  ##    ##  '#,     ,#' ,#      #,         ##   #,  ,#        
             '#######'   ##     ##  '#######'  #'      '#     #####' # '####'        



                  #######################################################
                  #                        -***-                        #
                  #          Department of theory and spectroscopy      #
                  #    Directorship and core code : Frank Neese         #
                  #        Max Planck Institute fuer Kohlenforschung    #
                  #                Kaiser Wilhelm Platz 1               #
                  #                 D-45470 Muelheim/Ruhr               #
                  #                      Germany                        #
                  #                                                     #
                  #                  All rights reserved                #
                  #                        -***-                        #
                  #######################################################


                         Program Version 5.0.3 -  RELEASE  -


 With contributions from (in alphabetic order):
   Daniel Aravena         : Magnetic Suceptibility
   Michael Atanasov       : Ab Initio Ligand Field Theory (pilot matlab implementation)
   Alexander A. Auer      : GIAO ZORA, VPT2 properties, NMR spectrum
   Ute Becker             : Parallelization
   Giovanni Bistoni       : ED, misc. LED, open-shell LED, HFLD
   Martin Brehm           : Molecular dynamics
   Dmytro Bykov           : SCF Hessian
   Vijay G. Chilkuri      : MRCI spin determinant printing, contributions to CSF-ICE
   Dipayan Datta          : RHF DLPNO-CCSD density
   Achintya Kumar Dutta   : EOM-CC, STEOM-CC
   Dmitry Ganyushin       : Spin-Orbit,Spin-Spin,Magnetic field MRCI
   Miquel Garcia          : C-PCM and meta-GGA Hessian, CC/C-PCM, Gaussian charge scheme
   Yang Guo               : DLPNO-NEVPT2, F12-NEVPT2, CIM, IAO-localization
   Andreas Hansen         : Spin unrestricted coupled pair/coupled cluster methods
   Benjamin Helmich-Paris : MC-RPA, TRAH-SCF, COSX integrals
   Lee Huntington         : MR-EOM, pCC
   Robert Izsak           : Overlap fitted RIJCOSX, COSX-SCS-MP3, EOM
   Marcus Kettner         : VPT2
   Christian Kollmar      : KDIIS, OOCD, Brueckner-CCSD(T), CCSD density, CASPT2, CASPT2-K
   Simone Kossmann        : Meta GGA functionals, TD-DFT gradient, OOMP2, MP2 Hessian
   Martin Krupicka        : Initial AUTO-CI
   Lucas Lang             : DCDCAS
   Marvin Lechner         : AUTO-CI (C++ implementation), FIC-MRCC
   Dagmar Lenk            : GEPOL surface, SMD
   Dimitrios Liakos       : Extrapolation schemes; Compound Job, initial MDCI parallelization
   Dimitrios Manganas     : Further ROCIS development; embedding schemes
   Dimitrios Pantazis     : SARC Basis sets
   Anastasios Papadopoulos: AUTO-CI, single reference methods and gradients
   Taras Petrenko         : DFT Hessian,TD-DFT gradient, ASA, ECA, R-Raman, ABS, FL, XAS/XES, NRVS
   Peter Pinski           : DLPNO-MP2, DLPNO-MP2 Gradient
   Christoph Reimann      : Effective Core Potentials
   Marius Retegan         : Local ZFS, SOC
   Christoph Riplinger    : Optimizer, TS searches, QM/MM, DLPNO-CCSD(T), (RO)-DLPNO pert. Triples
   Tobias Risthaus        : Range-separated hybrids, TD-DFT gradient, RPA, STAB
   Michael Roemelt        : Original ROCIS implementation
   Masaaki Saitow         : Open-shell DLPNO-CCSD energy and density
   Barbara Sandhoefer     : DKH picture change effects
   Avijit Sen             : IP-ROCIS
   Kantharuban Sivalingam : CASSCF convergence, NEVPT2, FIC-MRCI
   Bernardo de Souza      : ESD, SOC TD-DFT
   Georgi Stoychev        : AutoAux, RI-MP2 NMR, DLPNO-MP2 response
   Willem Van den Heuvel  : Paramagnetic NMR
   Boris Wezisla          : Elementary symmetry handling
   Frank Wennmohs         : Technical directorship


 We gratefully acknowledge several colleagues who have allowed us to
 interface, adapt or use parts of their codes:
   Stefan Grimme, W. Hujo, H. Kruse, P. Pracht,  : VdW corrections, initial TS optimization,
                  C. Bannwarth, S. Ehlert          DFT functionals, gCP, sTDA/sTD-DF
   Ed Valeev, F. Pavosevic, A. Kumar             : LibInt (2-el integral package), F12 methods
   Garnet Chan, S. Sharma, J. Yang, R. Olivares  : DMRG
   Ulf Ekstrom                                   : XCFun DFT Library
   Mihaly Kallay                                 : mrcc  (arbitrary order and MRCC methods)
   Jiri Pittner, Ondrej Demel                    : Mk-CCSD
   Frank Weinhold                                : gennbo (NPA and NBO analysis)
   Christopher J. Cramer and Donald G. Truhlar   : smd solvation model
   Lars Goerigk                                  : TD-DFT with DH, B97 family of functionals
   V. Asgeirsson, H. Jonsson                     : NEB implementation
   FAccTs GmbH                                   : IRC, NEB, NEB-TS, DLPNO-Multilevel, CI-OPT
                                                   MM, QMMM, 2- and 3-layer-ONIOM, Crystal-QMMM,
                                                   LR-CPCM, SF, NACMEs, symmetry and pop. for TD-DFT,
                                                   nearIR, NL-DFT gradient (VV10), updates on ESD,
                                                   ML-optimized integration grids
   S Lehtola, MJT Oliveira, MAL Marques          : LibXC Library
   Liviu Ungur et al                             : ANISO software


 Your calculation uses the libint2 library for the computation of 2-el integrals
 For citations please refer to: http://libint.valeyev.net

 Your ORCA version has been built with support for libXC version: 5.1.0
 For citations please refer to: https://tddft.org/programs/libxc/

 This ORCA versions uses:
   CBLAS   interface :  Fast vector & matrix operations
   LAPACKE interface :  Fast linear algebra routines
   SCALAPACK package :  Parallel linear algebra routines
   Shared memory     :  Shared parallel matrices
   BLAS/LAPACK       :  OpenBLAS 0.3.15  USE64BITINT DYNAMIC_ARCH NO_AFFINITY Haswell SINGLE_THREADED
        Core in use  :  Haswell
   Copyright (c) 2011-2014, The OpenBLAS Project




***************************************
The coordinates will be read from file: Thioether_TS.xyz
***************************************


Your calculation utilizes the geometrical counterpoise correction gCP
Please cite in your paper:
H.Kruse, S. Grimme J.Chem.Phys., 136, (2012), 154101 
   

Your calculation utilizes the atom-pairwise dispersion correction
with the Becke-Johnson damping scheme (D3BJ)
Cite in your paper:
S.Grimme, S.Ehrlich, L.Goerigk, J Comput Chem, (2011), 32, 1456–1465 
S.Grimme, J.Antony, S.Ehrlich and H.Krieg, J.Chem.Phys., 132, (2010), 154104 
   

Your calculation employs the composite approach PBEh-3c.
Please cite in your paper:
S. Grimme, J. G. Brandenburg, C. Bannwarth, A. Hansen J.Chem.Phys., 143, (2015), 054107 
   

================================================================================

----- Orbital basis set information -----
Your calculation utilizes the basis: def2-mSVP

----- AuxJ basis set information -----
Your calculation utilizes the auxiliary basis: def2/J
   F. Weigend, Phys. Chem. Chem. Phys. 8, 1057 (2006).

================================================================================
                                        WARNINGS
                       Please study these warnings very carefully!
================================================================================


INFO   : the flag for use of the SHARK integral package has been found!

================================================================================
                                       INPUT FILE
================================================================================
NAME = pbeh-3c.inp
|  1> ! PBEh-3c def2/J TightSCF DefGrid3
|  2> 
|  3> %maxcore 60000
|  4> 
|  5> %pal
|  6> nprocs 4
|  7> end
|  8> 
|  9> *xyzfile 0 1 Thioether_TS.xyz
| 10> 
| 11>                          ****END OF INPUT****
================================================================================

                       ****************************
                       * Single Point Calculation *
                       ****************************

---------------------------------
CARTESIAN COORDINATES (ANGSTROEM)
---------------------------------
  S      0.000449    0.087267   -0.033160
  C      1.862551    0.085351   -0.034769
  C     -1.865994    0.089186   -0.031546
  H      2.177332   -0.902969    0.278695
  H      2.171864    0.320708   -1.046140
  H      2.180546    0.845456    0.668582
  H     -2.166957   -0.163226   -1.041138
  H     -2.176757   -0.656317    0.688724
  H     -2.185387    1.085619    0.250651

----------------------------
CARTESIAN COORDINATES (A.U.)
----------------------------
  NO LB      ZA    FRAG     MASS         X           Y           Z
   0 S    16.0000    0    32.060    0.000849    0.164910   -0.062663
   1 C     6.0000    0    12.011    3.519711    0.161291   -0.065704
   2 C     6.0000    0    12.011   -3.526217    0.168537   -0.059613
   3 H     1.0000    0     1.008    4.114561   -1.706365    0.526656
   4 H     1.0000    0     1.008    4.104229    0.606051   -1.976918
   5 H     1.0000    0     1.008    4.120636    1.597681    1.263437
   6 H     1.0000    0     1.008   -4.094956   -0.308452   -1.967465
   7 H     1.0000    0     1.008   -4.113475   -1.240260    1.301500
   8 H     1.0000    0     1.008   -4.129784    2.051523    0.473662

--------------------------------
INTERNAL COORDINATES (ANGSTROEM)
--------------------------------
 S      0   0   0     0.000000000000     0.00000000     0.00000000
 C      1   0   0     1.862102980056     0.00000000     0.00000000
 C      1   2   0     1.866444784195   179.99996189     0.00000000
 H      2   1   3     1.083570145013   106.92929435    39.97094459
 H      2   1   3     1.083484711583   106.62241447   160.70870415
 H      2   1   3     1.083320092633   106.99301188   280.36604963
 H      3   1   2     1.083312686564   106.06766692   226.46194464
 H      3   1   2     1.082191346461   106.68013664   346.40277341
 H      3   1   2     1.083756209641   107.21032537   106.60922583

---------------------------
INTERNAL COORDINATES (A.U.)
---------------------------
 S      0   0   0     0.000000000000     0.00000000     0.00000000
 C      1   0   0     3.518864665465     0.00000000     0.00000000
 C      1   2   0     3.527069486214   179.99996189     0.00000000
 H      2   1   3     2.047650820969   106.92929435    39.97094459
 H      2   1   3     2.047489375183   106.62241447   160.70870415
 H      2   1   3     2.047178290450   106.99301188   280.36604963
 H      3   1   2     2.047164295008   106.06766692   226.46194464
 H      3   1   2     2.045045269311   106.68013664   346.40277341
 H      3   1   2     2.048002432158   107.21032537   106.60922583

---------------------
BASIS SET INFORMATION
---------------------
There are 3 groups of distinct atoms

 Group   1 Type S   : 10s7p1d contracted to 4s3p1d pattern {5311/511/1}
 Group   2 Type C   : 8s4p1d contracted to 4s2p1d pattern {5111/31/1}
 Group   3 Type H   : 4s contracted to 2s pattern {31}

Atom   0S    basis set group =>   1
Atom   1C    basis set group =>   2
Atom   2C    basis set group =>   2
Atom   3H    basis set group =>   3
Atom   4H    basis set group =>   3
Atom   5H    basis set group =>   3
Atom   6H    basis set group =>   3
Atom   7H    basis set group =>   3
Atom   8H    basis set group =>   3
---------------------------------
AUXILIARY/J BASIS SET INFORMATION
---------------------------------
There are 3 groups of distinct atoms

 Group   1 Type S   : 14s5p5d2f1g contracted to 8s4p3d1f1g pattern {71111111/2111/311/2/1}
 Group   2 Type C   : 12s5p4d2f1g contracted to 6s4p3d1f1g pattern {711111/2111/211/2/1}
 Group   3 Type H   : 5s2p1d contracted to 3s1p1d pattern {311/2/1}

Atom   0S    basis set group =>   1
Atom   1C    basis set group =>   2
Atom   2C    basis set group =>   2
Atom   3H    basis set group =>   3
Atom   4H    basis set group =>   3
Atom   5H    basis set group =>   3
Atom   6H    basis set group =>   3
Atom   7H    basis set group =>   3
Atom   8H    basis set group =>   3


           ************************************************************
           *        Program running with 4 parallel MPI-processes     *
           *              working on a common directory               *
           ************************************************************
------------------------------------------------------------------------------
                           ORCA GTO INTEGRAL CALCULATION
                           -- RI-GTO INTEGRALS CHOSEN --
------------------------------------------------------------------------------
------------------------------------------------------------------------------
                   ___                                                        
                  /   \      - P O W E R E D   B Y -                         
                 /     \                                                     
                 |  |  |   _    _      __       _____    __    __             
                 |  |  |  | |  | |    /  \     |  _  \  |  |  /  |          
                  \  \/   | |  | |   /    \    | | | |  |  | /  /          
                 / \  \   | |__| |  /  /\  \   | |_| |  |  |/  /          
                |  |  |   |  __  | /  /__\  \  |    /   |      \           
                |  |  |   | |  | | |   __   |  |    \   |  |\   \          
                \     /   | |  | | |  |  |  |  | |\  \  |  | \   \       
                 \___/    |_|  |_| |__|  |__|  |_| \__\ |__|  \__/        
                                                                              
                      - O R C A' S   B I G   F R I E N D -                    
                                      &                                       
                       - I N T E G R A L  F E E D E R -                       
                                                                              
 v1 FN, 2020, v2 2021                                                         
------------------------------------------------------------------------------


Reading SHARK input file pbeh-3c.SHARKINP.tmp ... ok
----------------------
SHARK INTEGRAL PACKAGE
----------------------

Number of atoms                             ...      9
Number of basis functions                   ...     60
Number of shells                            ...     34
Maximum angular momentum                    ...      2
Integral batch strategy                     ... SHARK/LIBINT Hybrid
RI-J (if used) integral strategy            ... SPLIT-RIJ (Revised 2003 algorithm where possible)
Printlevel                                  ...      1
Contraction scheme used                     ... SEGMENTED contraction
Coulomb Range Separation                    ... NOT USED
Exchange Range Separation                   ... NOT USED
Finite Nucleus Model                        ... NOT USED
Auxiliary Coulomb fitting basis             ... AVAILABLE
   # of basis functions in Aux-J            ...    215
   # of shells in Aux-J                     ...     77
   Maximum angular momentum in Aux-J        ...      4
Auxiliary J/K fitting basis                 ... NOT available
Auxiliary Correlation fitting basis         ... NOT available
Auxiliary 'external' fitting basis          ... NOT available
Integral threshold                          ...     2.500000e-11
Primitive cut-off                           ...     2.500000e-12
Primitive pair pre-selection threshold      ...     2.500000e-12

Calculating pre-screening integrals         ... done (  0.1 sec) Dimension = 34
Organizing shell pair data                  ... done (  0.0 sec)
Shell pair information
Total number of shell pairs                 ...       595
Shell pairs after pre-screening             ...       568
Total number of primitive shell pairs       ...      2413
Primitive shell pairs kept                  ...      1728
          la=0 lb=0:    277 shell pairs
          la=1 lb=0:    168 shell pairs
          la=1 lb=1:     28 shell pairs
          la=2 lb=0:     68 shell pairs
          la=2 lb=1:     21 shell pairs
          la=2 lb=2:      6 shell pairs

Calculating one electron integrals          ... done (  0.0 sec)
Calculating RI/J V-Matrix + Cholesky decomp.... done (  0.3 sec)
Calculating Nuclear repulsion               ... done (  0.0 sec) ENN=    105.637905717953 Eh

SHARK setup successfully completed in   1.0 seconds

Maximum memory used throughout the entire GTOINT-calculation: 9.3 MB


           ************************************************************
           *        Program running with 4 parallel MPI-processes     *
           *              working on a common directory               *
           ************************************************************
-------------------------------------------------------------------------------
                                 ORCA SCF
-------------------------------------------------------------------------------

------------
SCF SETTINGS
------------
Hamiltonian:
 Density Functional     Method          .... DFT(GTOs)
 Exchange Functional    Exchange        .... PBE
   PBE kappa parameter   XKappa         ....  1.024500
   PBE mue parameter    XMuePBE         ....  0.123457
 Correlation Functional Correlation     .... PBE
   PBE beta parameter  CBetaPBE         ....  0.030000
 LDA part of GGA corr.  LDAOpt          .... PW91-LDA
 Gradients option       PostSCFGGA      .... off
 Hybrid DFT is turned on
   Fraction HF Exchange ScalHFX         ....  0.420000
   Scaling of DF-GGA-X  ScalDFX         ....  0.580000
   Scaling of DF-GGA-C  ScalDFC         ....  1.000000
   Scaling of DF-LDA-C  ScalLDAC        ....  1.000000
   Perturbative correction              ....  0.000000
   Density functional embedding theory  .... OFF
 RI-approximation to the Coulomb term is turned on
   Number of AuxJ basis functions       .... 215
   RIJ-ON(X) (HFX calculated with O(N)) .... on
   Number of AuxJ basis functions       .... 215
   RIJ-COSX (HFX calculated with COS-X)).... on


General Settings:
 Integral files         IntName         .... pbeh-3c
 Hartree-Fock type      HFTyp           .... RHF
 Total Charge           Charge          ....    0
 Multiplicity           Mult            ....    1
 Number of Electrons    NEL             ....   34
 Basis Dimension        Dim             ....   60
 Nuclear Repulsion      ENuc            ....    105.6379057180 Eh

Convergence Acceleration:
 DIIS                   CNVDIIS         .... on
   Start iteration      DIISMaxIt       ....    12
   Startup error        DIISStart       ....  0.200000
   # of expansion vecs  DIISMaxEq       ....     5
   Bias factor          DIISBfac        ....   1.050
   Max. coefficient     DIISMaxC        ....  10.000
 Trust-Rad. Augm. Hess. CNVTRAH         .... auto
   Auto Start mean grad. ratio tolernc. ....  1.125000
   Auto Start start iteration           ....    20
   Auto Start num. interpolation iter.  ....    10
   Max. Number of Micro iterations      ....    16
   Max. Number of Macro iterations      .... Maxiter - #DIIS iter
   Number of Davidson start vectors     ....     2
   Converg. threshold I  (grad. norm)   ....   1.000e-05
   Converg. threshold II (energy diff.) ....   1.000e-08
   Grad. Scal. Fac. for Micro threshold ....   0.100
   Minimum threshold for Micro iter.    ....   0.010
   NR start threshold (gradient norm)   ....   0.001
   Initial trust radius                 ....   0.400
   Minimum AH scaling param. (alpha)    ....   1.000
   Maximum AH scaling param. (alpha)    .... 1000.000
   Orbital update algorithm             .... Taylor
   White noise on init. David. guess    .... on
   Maximum white noise                  ....   0.010
   Quad. conv. algorithm                .... NR
   COSX micro iterations for RIJONX calc.... off
 SOSCF                  CNVSOSCF        .... on
   Start iteration      SOSCFMaxIt      ....   150
   Startup grad/error   SOSCFStart      ....  0.003300
 Level Shifting         CNVShift        .... on
   Level shift para.    LevelShift      ....    0.2500
   Turn off err/grad.   ShiftErr        ....    0.0010
 Zerner damping         CNVZerner       .... off
 Static damping         CNVDamp         .... on
   Fraction old density DampFac         ....    0.7000
   Max. Damping (<1)    DampMax         ....    0.9800
   Min. Damping (>=0)   DampMin         ....    0.0000
   Turn off err/grad.   DampErr         ....    0.1000
 Fernandez-Rico         CNVRico         .... off

SCF Procedure:
 Maximum # iterations   MaxIter         ....   125
 SCF integral mode      SCFMode         .... Direct
   Integral package                     .... SHARK and LIBINT hybrid scheme
 Reset frequency        DirectResetFreq ....    20
 Integral Threshold     Thresh          ....  2.500e-11 Eh
 Primitive CutOff       TCut            ....  2.500e-12 Eh

Convergence Tolerance:
 Convergence Check Mode ConvCheckMode   .... Total+1el-Energy
 Convergence forced     ConvForced      .... 0
 Energy Change          TolE            ....  1.000e-08 Eh
 1-El. energy change                    ....  1.000e-05 Eh
 Orbital Gradient       TolG            ....  1.000e-05
 Orbital Rotation angle TolX            ....  1.000e-05
 DIIS Error             TolErr          ....  5.000e-07


Diagonalization of the overlap matrix:
Smallest eigenvalue                        ... 1.138e-02
Time for diagonalization                   ...    0.001 sec
Threshold for overlap eigenvalues          ... 1.000e-08
Number of eigenvalues below threshold      ... 0
Time for construction of square roots      ...    0.039 sec
Total time needed                          ...    0.301 sec

--------------------------------
INITIAL GUESS: MINIMAL BASIS EHT
--------------------------------
The minimal basis has 25 functions
EHT matrix was diagonalized
Basis set overlap was calculated now projecting the orbitals
Using GuessMode=FMatrix for the initial guess
C*T matrix was formed
Effective Fockian was calculated
Effective Fockian was diagonalized
Initial density was built
                      ------------------
                      INITIAL GUESS DONE
                      ------------------
-------------------
DFT GRID GENERATION
-------------------

General Integration Accuracy     IntAcc      ... 4.959
Radial Grid Type                 RadialGrid  ... OptM3 with GC (2021)
Angular Grid (max. ang.)         AngularGrid ... 6 (Lebedev-590)
Angular grid pruning method      GridPruning ... 4 (adaptive)
Weight generation scheme         WeightScheme... Becke
Basis function cutoff            BFCut       ... 1.0000e-11
Integration weight cutoff        WCut        ... 1.0000e-14
Angular grids for H and He will be reduced by one unit
Partially contracted basis set               ... off
Rotationally invariant grid construction     ... off

Total number of grid points                  ...    98709
Total number of batches                      ...     1547
Average number of points per batch           ...       63
Average number of grid points per atom       ...    10968
Time for grid setup =    1.553 sec

--------------------
COSX GRID GENERATION
--------------------

GRIDX 1
-------
General Integration Accuracy     IntAcc      ... 4.020
Radial Grid Type                 RadialGrid  ... OptM3 with GC (2021)
Angular Grid (max. ang.)         AngularGrid ... 2 (Lebedev-110)
Angular grid pruning method      GridPruning ... 4 (adaptive)
Weight generation scheme         WeightScheme... Becke
Basis function cutoff            BFCut       ... 1.0000e-11
Integration weight cutoff        WCut        ... 1.0000e-14
Angular grids for H and He will be reduced by one unit
Partially contracted basis set               ... on
Rotationally invariant grid construction     ... off

Total number of grid points                  ...    10375
Total number of batches                      ...      166
Average number of points per batch           ...       62
Average number of grid points per atom       ...     1153
UseSFitting                                  ... on

GRIDX 2
-------
General Integration Accuracy     IntAcc      ... 4.338
Radial Grid Type                 RadialGrid  ... OptM3 with GC (2021)
Angular Grid (max. ang.)         AngularGrid ... 3 (Lebedev-194)
Angular grid pruning method      GridPruning ... 4 (adaptive)
Weight generation scheme         WeightScheme... Becke
Basis function cutoff            BFCut       ... 1.0000e-11
Integration weight cutoff        WCut        ... 1.0000e-14
Angular grids for H and He will be reduced by one unit
Partially contracted basis set               ... on
Rotationally invariant grid construction     ... off

Total number of grid points                  ...    23380
Total number of batches                      ...      370
Average number of points per batch           ...       63
Average number of grid points per atom       ...     2598
UseSFitting                                  ... on

GRIDX 3
-------
General Integration Accuracy     IntAcc      ... 4.871
Radial Grid Type                 RadialGrid  ... OptM3 with GC (2021)
Angular Grid (max. ang.)         AngularGrid ... 4 (Lebedev-302)
Angular grid pruning method      GridPruning ... 4 (adaptive)
Weight generation scheme         WeightScheme... Becke
Basis function cutoff            BFCut       ... 1.0000e-11
Integration weight cutoff        WCut        ... 1.0000e-14
Angular grids for H and He will be reduced by one unit
Partially contracted basis set               ... on
Rotationally invariant grid construction     ... off

Total number of grid points                  ...    46537
Total number of batches                      ...      733
Average number of points per batch           ...       63
Average number of grid points per atom       ...     5171
UseSFitting                                  ... on

Time for X-Grid setup             =    2.035 sec

--------------
SCF ITERATIONS
--------------
ITER       Energy         Delta-E        Max-DP      RMS-DP      [F,P]     Damp
               ***  Starting incremental Fock matrix formation  ***
  0   -476.7840154678   0.000000000000 0.21053311  0.00848509  0.4706502 0.7000
  1   -476.9371597076  -0.153144239837 0.13655240  0.00547262  0.3140272 0.7000
  2   -477.0366005525  -0.099440844869 0.08724752  0.00352288  0.2070781 0.7000
                               ***Turning on DIIS***
  3   -477.1052565051  -0.068655952645 0.05689304  0.00237792  0.1376753 0.7000
  4   -477.1536601777  -0.048403672518 0.12450247  0.00575430  0.0924035 0.0000
  5   -477.2690656490  -0.115405471328 0.00787141  0.00048170  0.0061129 0.0000
                      *** Initiating the SOSCF procedure ***
                           *** Shutting down DIIS ***
                      *** Re-Reading the Fockian *** 
                      *** Removing any level shift *** 
ITER      Energy       Delta-E        Grad      Rot      Max-DP    RMS-DP
  6   -477.26928143  -0.0002157848  0.001959  0.001959  0.005280  0.000199
               *** Restarting incremental Fock matrix formation ***
  7   -477.26931276  -0.0000313261  0.000465  0.000710  0.001716  0.000133
  8   -477.26931795  -0.0000051904  0.000333  0.000596  0.001084  0.000054
  9   -477.26931878  -0.0000008346  0.000123  0.000181  0.000253  0.000015
 10   -477.26931891  -0.0000001215  0.000018  0.000121  0.000118  0.000006
 11   -477.26931892  -0.0000000088  0.000008  0.000127  0.000120  0.000006
 12   -477.26931892  -0.0000000018  0.000010  0.000024  0.000023  0.000001
                  ***Gradient check signals convergence***
              ***Rediagonalizing the Fockian in SOSCF/NRSCF***

               *****************************************************
               *                     SUCCESS                       *
               *           SCF CONVERGED AFTER  13 CYCLES          *
               *****************************************************

Old exchange energy                            =    -15.727964054 Eh
New exchange energy                            =    -15.727966981 Eh
Exchange energy change after final integration =     -0.000002926 Eh
Total energy after final integration           =   -477.269321844 Eh
Final COS-X integration done in                =     1.135 sec

----------------
TOTAL SCF ENERGY
----------------

Total Energy       :         -477.26932184 Eh          -12987.15850 eV

Components:
Nuclear Repulsion  :          105.63790572 Eh            2874.55355 eV
Electronic Energy  :         -582.90722756 Eh          -15861.71206 eV
One Electron Energy:         -866.05822336 Eh          -23566.64236 eV
Two Electron Energy:          283.15099580 Eh            7704.93031 eV
Max COSX asymmetry :            0.00000185 Eh               0.00005 eV

Virial components:
Potential Energy   :         -953.36804692 Eh          -25942.46345 eV
Kinetic Energy     :          476.09872507 Eh           12955.30494 eV
Virial Ratio       :            2.00245873


DFT components:
N(Alpha)           :       17.000000075065 electrons
N(Beta)            :       17.000000075065 electrons
N(Total)           :       34.000000150130 electrons
E(X)               :      -20.947002507772 Eh       
E(C)               :       -1.563366360423 Eh       
E(XC)              :      -22.510368868196 Eh       
DFET-embed. en.    :        0.000000000000 Eh       

---------------
SCF CONVERGENCE
---------------

  Last Energy change         ...   -8.3111e-10  Tolerance :   1.0000e-08
  Last MAX-Density change    ...    4.8850e-15  Tolerance :   1.0000e-07
  Last RMS-Density change    ...    1.0892e-16  Tolerance :   5.0000e-09
  Last Orbital Gradient      ...    9.9436e-07  Tolerance :   1.0000e-05
  Last Orbital Rotation      ...    1.5707e-06  Tolerance :   1.0000e-05

             **** THE GBW FILE WAS UPDATED (pbeh-3c.gbw) ****
             **** DENSITY pbeh-3c.scfp WAS UPDATED ****
             **** ENERGY FILE WAS UPDATED (pbeh-3c.en.tmp) ****
             **** THE GBW FILE WAS UPDATED (pbeh-3c.gbw) ****
             **** DENSITY pbeh-3c.scfp WAS UPDATED ****
----------------
ORBITAL ENERGIES
----------------

  NO   OCC          E(Eh)            E(eV) 
   0   2.0000     -89.511819     -2435.7404 
   1   2.0000     -10.500045      -285.7208 
   2   2.0000     -10.499131      -285.6959 
   3   2.0000      -8.153321      -221.8631 
   4   2.0000      -6.046938      -164.5455 
   5   2.0000      -6.039153      -164.3337 
   6   2.0000      -6.039129      -164.3330 
   7   2.0000      -0.853311       -23.2198 
   8   2.0000      -0.809436       -22.0259 
   9   2.0000      -0.649120       -17.6635 
  10   2.0000      -0.502158       -13.6644 
  11   2.0000      -0.500736       -13.6257 
  12   2.0000      -0.492956       -13.4140 
  13   2.0000      -0.491339       -13.3700 
  14   2.0000      -0.439633       -11.9630 
  15   2.0000      -0.228487        -6.2175 
  16   2.0000      -0.228263        -6.2114 
  17   0.0000      -0.057170        -1.5557 
  18   0.0000       0.163170         4.4401 
  19   0.0000       0.171049         4.6545 
  20   0.0000       0.192474         5.2375 
  21   0.0000       0.193695         5.2707 
  22   0.0000       0.216403         5.8886 
  23   0.0000       0.217219         5.9108 
  24   0.0000       0.239109         6.5065 
  25   0.0000       0.434090        11.8122 
  26   0.0000       0.472156        12.8480 
  27   0.0000       0.472499        12.8573 
  28   0.0000       0.526338        14.3224 
  29   0.0000       0.541943        14.7470 
  30   0.0000       0.542855        14.7718 
  31   0.0000       0.546842        14.8803 
  32   0.0000       0.785726        21.3807 
  33   0.0000       0.786251        21.3950 
  34   0.0000       0.836927        22.7740 
  35   0.0000       0.838355        22.8128 
  36   0.0000       0.870322        23.6827 
  37   0.0000       0.871074        23.7031 
  38   0.0000       0.963800        26.2263 
  39   0.0000       0.965915        26.2839 
  40   0.0000       1.017853        27.6972 
  41   0.0000       1.020107        27.7585 
  42   0.0000       1.032208        28.0878 
  43   0.0000       1.034633        28.1538 
  44   0.0000       1.091974        29.7141 
  45   0.0000       1.104247        30.0481 
  46   0.0000       1.256844        34.2005 
  47   0.0000       1.444894        39.3176 
  48   0.0000       1.734034        47.1855 
  49   0.0000       1.734770        47.2055 
  50   0.0000       1.790114        48.7115 
  51   0.0000       1.791574        48.7512 
  52   0.0000       2.087430        56.8019 
  53   0.0000       2.272317        61.8329 
  54   0.0000       2.272703        61.8434 
  55   0.0000       2.275429        61.9176 
  56   0.0000       2.285083        62.1803 
  57   0.0000       2.287929        62.2577 
  58   0.0000      13.652670       371.5080 
  59   0.0000      13.689023       372.4973 

                    ********************************
                    * MULLIKEN POPULATION ANALYSIS *
                    ********************************

-----------------------
MULLIKEN ATOMIC CHARGES
-----------------------
   0 S :   -0.384924
   1 C :   -0.606242
   2 C :   -0.605144
   3 H :    0.265671
   4 H :    0.266173
   5 H :    0.265110
   6 H :    0.267307
   7 H :    0.266636
   8 H :    0.265413
Sum of atomic charges:    0.0000000

--------------------------------
MULLIKEN REDUCED ORBITAL CHARGES
--------------------------------
  0 S s       :     5.586943  s :     5.586943
      pz      :     3.937843  p :    10.761029
      px      :     2.887058
      py      :     3.936128
      dz2     :     0.004449  d :     0.036952
      dxz     :     0.009621
      dyz     :     0.000057
      dx2y2   :     0.013274
      dxy     :     0.009551
  1 C s       :     3.455177  s :     3.455177
      pz      :     1.183354  p :     3.109615
      px      :     0.742850
      py      :     1.183410
      dz2     :     0.008301  d :     0.041450
      dxz     :     0.007905
      dyz     :     0.007905
      dx2y2   :     0.009388
      dxy     :     0.007951
  2 C s       :     3.456458  s :     3.456458
      pz      :     1.183520  p :     3.107422
      px      :     0.740067
      py      :     1.183835
      dz2     :     0.008485  d :     0.041264
      dxz     :     0.007695
      dyz     :     0.007805
      dx2y2   :     0.009374
      dxy     :     0.007905
  3 H s       :     0.734329  s :     0.734329
  4 H s       :     0.733827  s :     0.733827
  5 H s       :     0.734890  s :     0.734890
  6 H s       :     0.732693  s :     0.732693
  7 H s       :     0.733364  s :     0.733364
  8 H s       :     0.734587  s :     0.734587


                     *******************************
                     * LOEWDIN POPULATION ANALYSIS *
                     *******************************

----------------------
LOEWDIN ATOMIC CHARGES
----------------------
   0 S :   -0.178267
   1 C :   -0.345365
   2 C :   -0.343212
   3 H :    0.144359
   4 H :    0.144679
   5 H :    0.143606
   6 H :    0.145316
   7 H :    0.144696
   8 H :    0.144189

-------------------------------
LOEWDIN REDUCED ORBITAL CHARGES
-------------------------------
  0 S s       :     5.379684  s :     5.379684
      pz      :     3.907382  p :    10.755476
      px      :     2.941886
      py      :     3.906208
      dz2     :     0.004977  d :     0.043107
      dxz     :     0.011642
      dyz     :     0.000070
      dx2y2   :     0.014846
      dxy     :     0.011571
  1 C s       :     3.029962  s :     3.029962
      pz      :     1.185389  p :     3.243165
      px      :     0.872085
      py      :     1.185691
      dz2     :     0.013933  d :     0.072237
      dxz     :     0.014271
      dyz     :     0.012557
      dx2y2   :     0.017121
      dxy     :     0.014356
  2 C s       :     3.031060  s :     3.031060
      pz      :     1.185529  p :     3.240374
      px      :     0.869013
      py      :     1.185832
      dz2     :     0.014215  d :     0.071778
      dxz     :     0.013874
      dyz     :     0.012393
      dx2y2   :     0.017042
      dxy     :     0.014253
  3 H s       :     0.855641  s :     0.855641
  4 H s       :     0.855321  s :     0.855321
  5 H s       :     0.856394  s :     0.856394
  6 H s       :     0.854684  s :     0.854684
  7 H s       :     0.855304  s :     0.855304
  8 H s       :     0.855811  s :     0.855811


                      *****************************
                      * MAYER POPULATION ANALYSIS *
                      *****************************

  NA   - Mulliken gross atomic population
  ZA   - Total nuclear charge
  QA   - Mulliken gross atomic charge
  VA   - Mayer's total valence
  BVA  - Mayer's bonded valence
  FA   - Mayer's free valence

  ATOM       NA         ZA         QA         VA         BVA        FA
  0 S     16.3849    16.0000    -0.3849     1.7982     1.7982     0.0000
  1 C      6.6062     6.0000    -0.6062     3.6971     3.6971     0.0000
  2 C      6.6051     6.0000    -0.6051     3.6947     3.6947     0.0000
  3 H      0.7343     1.0000     0.2657     0.8777     0.8777     0.0000
  4 H      0.7338     1.0000     0.2662     0.8775     0.8775     0.0000
  5 H      0.7349     1.0000     0.2651     0.8772     0.8772     0.0000
  6 H      0.7327     1.0000     0.2673     0.8768     0.8768     0.0000
  7 H      0.7334     1.0000     0.2666     0.8771     0.8771     0.0000
  8 H      0.7346     1.0000     0.2654     0.8777     0.8777    -0.0000

  Mayer bond orders larger than 0.100000
B(  0-S ,  1-C ) :   0.9083 B(  0-S ,  2-C ) :   0.9062 B(  1-C ,  2-C ) :   0.1157 
B(  1-C ,  3-H ) :   0.8885 B(  1-C ,  4-H ) :   0.8886 B(  1-C ,  5-H ) :   0.8884 
B(  2-C ,  6-H ) :   0.8886 B(  2-C ,  7-H ) :   0.8883 B(  2-C ,  8-H ) :   0.8882 


-------
TIMINGS
-------

Total SCF time: 0 days 0 hours 0 min 39 sec 

Total time                  ....      39.340 sec
Sum of individual times     ....      36.908 sec  ( 93.8%)

Fock matrix formation       ....      31.218 sec  ( 79.4%)
  Split-RI-J                ....       4.773 sec  ( 15.3% of F)
  Chain of spheres X        ....       8.574 sec  ( 27.5% of F)
  XC integration            ....       7.553 sec  ( 24.2% of F)
    Basis function eval.    ....       1.142 sec  ( 15.1% of XC)
    Density eval.           ....       0.625 sec  (  8.3% of XC)
    XC-Functional eval.     ....       0.893 sec  ( 11.8% of XC)
    XC-Potential eval.      ....       0.344 sec  (  4.6% of XC)
Diagonalization             ....       0.386 sec  (  1.0%)
Density matrix formation    ....       0.065 sec  (  0.2%)
Population analysis         ....       0.285 sec  (  0.7%)
Initial guess               ....       0.003 sec  (  0.0%)
Orbital Transformation      ....       0.000 sec  (  0.0%)
Orbital Orthonormalization  ....       0.000 sec  (  0.0%)
DIIS solution               ....       1.300 sec  (  3.3%)
SOSCF solution              ....       0.062 sec  (  0.2%)
Grid generation             ....       3.588 sec  (  9.1%)

Maximum memory used throughout the entire SCF-calculation: 46.9 MB


-------------------------------------------------------------------------------
                          DFT DISPERSION CORRECTION                            
                                                                               
                              DFTD3 V3.1  Rev 1                                
                          USING Becke-Johnson damping                          
-------------------------------------------------------------------------------
The PBEh-3c composite method is recognized
Using three-body term ABC
Active option DFTDOPT                   ...         4   

molecular C6(AA) [au] = 915.008806 


            DFT-D V3
 parameters
 s6 scaling factor         :     1.0000 
 a1 scaling factor         :     0.4860 
 s8 scaling factor         :     0.0000 
 a2 scaling factor         :     4.5000 
 Damping factor alpha9(ATM):    16.0000 
 ad hoc parameters k1-k3   :    16.0000     1.3333    -4.0000 

 Edisp/kcal,au: -1.678204789457  -0.002674389280 
 E6   /kcal   :  -1.680274805 
 E8   /kcal   :  -0.000000000 
 E6(ABC)      :   0.002070015 
 % E8         :   0.000000000 
 % E6(ABC)    :  -0.123346989 

-------------------------   ----------------
Dispersion correction           -0.002674389
-------------------------   ----------------

------------------   -----------------
gCP correction             0.009677179
------------------   -----------------

-------------------------   --------------------
FINAL SINGLE POINT ENERGY      -477.262319053910
-------------------------   --------------------


                            ***************************************
                            *     ORCA property calculations      *
                            ***************************************

                                    ---------------------
                                    Active property flags
                                    ---------------------
   (+) Dipole Moment


------------------------------------------------------------------------------
                       ORCA ELECTRIC PROPERTIES CALCULATION
------------------------------------------------------------------------------

Dipole Moment Calculation                       ... on
Quadrupole Moment Calculation                   ... off
Polarizability Calculation                      ... off
GBWName                                         ... pbeh-3c.gbw
Electron density                                ... pbeh-3c.scfp
The origin for moment calculation is the CENTER OF MASS  = (-0.000800,  0.165085 -0.062712)

-------------
DIPOLE MOMENT
-------------
                                X             Y             Z
Electronic contribution:     -0.01371      -0.00231       0.00405
Nuclear contribution   :      0.00296       0.00480      -0.00142
                        -----------------------------------------
Total Dipole Moment    :     -0.01075       0.00249       0.00263
                        -----------------------------------------
Magnitude (a.u.)       :      0.01134
Magnitude (Debye)      :      0.02883



--------------------
Rotational spectrum 
--------------------
 
Rotational constants in cm-1:     2.590515     0.146109     0.146070 
Rotational constants in MHz : 77661.698354  4380.240248  4379.073965 

 Dipole components along the rotational axes: 
x,y,z [a.u.] :     0.010752     0.000778     0.003528 
x,y,z [Debye]:     0.027331     0.001978     0.008968 

 

Timings for individual modules:

Sum of individual times         ...       41.298 sec (=   0.688 min)
GTO integral calculation        ...        1.567 sec (=   0.026 min)   3.8 %
SCF iterations                  ...       39.731 sec (=   0.662 min)  96.2 %
                             ****ORCA TERMINATED NORMALLY****
TOTAL RUN TIME: 0 days 0 hours 0 minutes 42 seconds 605 msec
