
                                 *****************
                                 * O   R   C   A *
                                 *****************

                                            #,                                       
                                            ###                                      
                                            ####                                     
                                            #####                                    
                                            ######                                   
                                           ########,                                 
                                     ,,################,,,,,                         
                               ,,#################################,,                 
                          ,,##########################################,,             
                       ,#########################################, ''#####,          
                    ,#############################################,,   '####,        
                  ,##################################################,,,,####,       
                ,###########''''           ''''###############################       
              ,#####''   ,,,,##########,,,,          '''####'''          '####       
            ,##' ,,,,###########################,,,                        '##       
           ' ,,###''''                  '''############,,,                           
         ,,##''                                '''############,,,,        ,,,,,,###''
      ,#''                                            '''#######################'''  
     '                                                          ''''####''''         
             ,#######,   #######,   ,#######,      ##                                
            ,#'     '#,  ##    ##  ,#'     '#,    #''#        ######   ,####,        
            ##       ##  ##   ,#'  ##            #'  '#       #        #'  '#        
            ##       ##  #######   ##           ,######,      #####,   #    #        
            '#,     ,#'  ##    ##  '#,     ,#' ,#      #,         ##   #,  ,#        
             '#######'   ##     ##  '#######'  #'      '#     #####' # '####'        



                  #######################################################
                  #                        -***-                        #
                  #          Department of theory and spectroscopy      #
                  #    Directorship and core code : Frank Neese         #
                  #        Max Planck Institute fuer Kohlenforschung    #
                  #                Kaiser Wilhelm Platz 1               #
                  #                 D-45470 Muelheim/Ruhr               #
                  #                      Germany                        #
                  #                                                     #
                  #                  All rights reserved                #
                  #                        -***-                        #
                  #######################################################


                         Program Version 5.0.3 -  RELEASE  -


 With contributions from (in alphabetic order):
   Daniel Aravena         : Magnetic Suceptibility
   Michael Atanasov       : Ab Initio Ligand Field Theory (pilot matlab implementation)
   Alexander A. Auer      : GIAO ZORA, VPT2 properties, NMR spectrum
   Ute Becker             : Parallelization
   Giovanni Bistoni       : ED, misc. LED, open-shell LED, HFLD
   Martin Brehm           : Molecular dynamics
   Dmytro Bykov           : SCF Hessian
   Vijay G. Chilkuri      : MRCI spin determinant printing, contributions to CSF-ICE
   Dipayan Datta          : RHF DLPNO-CCSD density
   Achintya Kumar Dutta   : EOM-CC, STEOM-CC
   Dmitry Ganyushin       : Spin-Orbit,Spin-Spin,Magnetic field MRCI
   Miquel Garcia          : C-PCM and meta-GGA Hessian, CC/C-PCM, Gaussian charge scheme
   Yang Guo               : DLPNO-NEVPT2, F12-NEVPT2, CIM, IAO-localization
   Andreas Hansen         : Spin unrestricted coupled pair/coupled cluster methods
   Benjamin Helmich-Paris : MC-RPA, TRAH-SCF, COSX integrals
   Lee Huntington         : MR-EOM, pCC
   Robert Izsak           : Overlap fitted RIJCOSX, COSX-SCS-MP3, EOM
   Marcus Kettner         : VPT2
   Christian Kollmar      : KDIIS, OOCD, Brueckner-CCSD(T), CCSD density, CASPT2, CASPT2-K
   Simone Kossmann        : Meta GGA functionals, TD-DFT gradient, OOMP2, MP2 Hessian
   Martin Krupicka        : Initial AUTO-CI
   Lucas Lang             : DCDCAS
   Marvin Lechner         : AUTO-CI (C++ implementation), FIC-MRCC
   Dagmar Lenk            : GEPOL surface, SMD
   Dimitrios Liakos       : Extrapolation schemes; Compound Job, initial MDCI parallelization
   Dimitrios Manganas     : Further ROCIS development; embedding schemes
   Dimitrios Pantazis     : SARC Basis sets
   Anastasios Papadopoulos: AUTO-CI, single reference methods and gradients
   Taras Petrenko         : DFT Hessian,TD-DFT gradient, ASA, ECA, R-Raman, ABS, FL, XAS/XES, NRVS
   Peter Pinski           : DLPNO-MP2, DLPNO-MP2 Gradient
   Christoph Reimann      : Effective Core Potentials
   Marius Retegan         : Local ZFS, SOC
   Christoph Riplinger    : Optimizer, TS searches, QM/MM, DLPNO-CCSD(T), (RO)-DLPNO pert. Triples
   Tobias Risthaus        : Range-separated hybrids, TD-DFT gradient, RPA, STAB
   Michael Roemelt        : Original ROCIS implementation
   Masaaki Saitow         : Open-shell DLPNO-CCSD energy and density
   Barbara Sandhoefer     : DKH picture change effects
   Avijit Sen             : IP-ROCIS
   Kantharuban Sivalingam : CASSCF convergence, NEVPT2, FIC-MRCI
   Bernardo de Souza      : ESD, SOC TD-DFT
   Georgi Stoychev        : AutoAux, RI-MP2 NMR, DLPNO-MP2 response
   Willem Van den Heuvel  : Paramagnetic NMR
   Boris Wezisla          : Elementary symmetry handling
   Frank Wennmohs         : Technical directorship


 We gratefully acknowledge several colleagues who have allowed us to
 interface, adapt or use parts of their codes:
   Stefan Grimme, W. Hujo, H. Kruse, P. Pracht,  : VdW corrections, initial TS optimization,
                  C. Bannwarth, S. Ehlert          DFT functionals, gCP, sTDA/sTD-DF
   Ed Valeev, F. Pavosevic, A. Kumar             : LibInt (2-el integral package), F12 methods
   Garnet Chan, S. Sharma, J. Yang, R. Olivares  : DMRG
   Ulf Ekstrom                                   : XCFun DFT Library
   Mihaly Kallay                                 : mrcc  (arbitrary order and MRCC methods)
   Jiri Pittner, Ondrej Demel                    : Mk-CCSD
   Frank Weinhold                                : gennbo (NPA and NBO analysis)
   Christopher J. Cramer and Donald G. Truhlar   : smd solvation model
   Lars Goerigk                                  : TD-DFT with DH, B97 family of functionals
   V. Asgeirsson, H. Jonsson                     : NEB implementation
   FAccTs GmbH                                   : IRC, NEB, NEB-TS, DLPNO-Multilevel, CI-OPT
                                                   MM, QMMM, 2- and 3-layer-ONIOM, Crystal-QMMM,
                                                   LR-CPCM, SF, NACMEs, symmetry and pop. for TD-DFT,
                                                   nearIR, NL-DFT gradient (VV10), updates on ESD,
                                                   ML-optimized integration grids
   S Lehtola, MJT Oliveira, MAL Marques          : LibXC Library
   Liviu Ungur et al                             : ANISO software


 Your calculation uses the libint2 library for the computation of 2-el integrals
 For citations please refer to: http://libint.valeyev.net

 Your ORCA version has been built with support for libXC version: 5.1.0
 For citations please refer to: https://tddft.org/programs/libxc/

 This ORCA versions uses:
   CBLAS   interface :  Fast vector & matrix operations
   LAPACKE interface :  Fast linear algebra routines
   SCALAPACK package :  Parallel linear algebra routines
   Shared memory     :  Shared parallel matrices
   BLAS/LAPACK       :  OpenBLAS 0.3.15  USE64BITINT DYNAMIC_ARCH NO_AFFINITY Haswell SINGLE_THREADED
        Core in use  :  Haswell
   Copyright (c) 2011-2014, The OpenBLAS Project




***************************************
The coordinates will be read from file: R47.xyz
***************************************


Your calculation utilizes the geometrical counterpoise correction gCP
Please cite in your paper:
H.Kruse, S. Grimme J.Chem.Phys., 136, (2012), 154101 
   

Your calculation utilizes the atom-pairwise dispersion correction
with the Becke-Johnson damping scheme (D3BJ)
Cite in your paper:
S.Grimme, S.Ehrlich, L.Goerigk, J Comput Chem, (2011), 32, 1456–1465 
S.Grimme, J.Antony, S.Ehrlich and H.Krieg, J.Chem.Phys., 132, (2010), 154104 
   

Your calculation employs the composite approach PBEh-3c.
Please cite in your paper:
S. Grimme, J. G. Brandenburg, C. Bannwarth, A. Hansen J.Chem.Phys., 143, (2015), 054107 
   

================================================================================

----- Orbital basis set information -----
Your calculation utilizes the basis: def2-mSVP

----- AuxJ basis set information -----
Your calculation utilizes the auxiliary basis: def2/J
   F. Weigend, Phys. Chem. Chem. Phys. 8, 1057 (2006).

================================================================================
                                        WARNINGS
                       Please study these warnings very carefully!
================================================================================


INFO   : the flag for use of the SHARK integral package has been found!

================================================================================
                                       INPUT FILE
================================================================================
NAME = pbeh-3c.inp
|  1> ! PBEh-3c def2/J TightSCF DefGrid3
|  2> 
|  3> %maxcore 60000
|  4> 
|  5> %pal
|  6> nprocs 4
|  7> end
|  8> 
|  9> *xyzfile 0 1 R47.xyz
| 10> 
| 11>                          ****END OF INPUT****
================================================================================

                       ****************************
                       * Single Point Calculation *
                       ****************************

---------------------------------
CARTESIAN COORDINATES (ANGSTROEM)
---------------------------------
  C      0.000000    0.633107    0.000000
  C      1.380056   -0.048486    0.000000
  C     -0.616117   -0.699535    0.000000
  C      0.568913   -1.344807    0.000000
  H      1.987678    0.128873    0.890236
  H      1.987678    0.128873   -0.890236
  C     -0.402454    1.898773    0.000000
  H      0.354388    2.676679    0.000000
  C     -1.832834    2.341673    0.000000
  H     -2.514539    1.491502    0.000000
  H     -2.059612    2.953965    0.877080
  H     -2.059612    2.953965   -0.877080
  H     -1.641068   -1.044751    0.000000
  C      0.998063   -2.761380    0.000000
  H      1.613582   -2.983281    0.876453
  H      0.144158   -3.438627    0.000000
  H      1.613582   -2.983281   -0.876453

----------------------------
CARTESIAN COORDINATES (A.U.)
----------------------------
  NO LB      ZA    FRAG     MASS         X           Y           Z
   0 C     6.0000    0    12.011    0.000000    1.196399    0.000000
   1 C     6.0000    0    12.011    2.607928   -0.091625    0.000000
   2 C     6.0000    0    12.011   -1.164292   -1.321930    0.000000
   3 C     6.0000    0    12.011    1.075090   -2.541317    0.000000
   4 H     1.0000    0     1.008    3.756167    0.243535    1.682302
   5 H     1.0000    0     1.008    3.756167    0.243535   -1.682302
   6 C     6.0000    0    12.011   -0.760528    3.588161    0.000000
   7 H     1.0000    0     1.008    0.669696    5.058190    0.000000
   8 C     6.0000    0    12.011   -3.463554    4.425120    0.000000
   9 H     1.0000    0     1.008   -4.751790    2.818530    0.000000
  10 H     1.0000    0     1.008   -3.892102    5.582184    1.657441
  11 H     1.0000    0     1.008   -3.892102    5.582184   -1.657441
  12 H     1.0000    0     1.008   -3.101169   -1.974293    0.000000
  13 C     6.0000    0    12.011    1.886066   -5.218252    0.000000
  14 H     1.0000    0     1.008    3.049228   -5.637584    1.656256
  15 H     1.0000    0     1.008    0.272419   -6.498063    0.000000
  16 H     1.0000    0     1.008    3.049228   -5.637584   -1.656256

--------------------------------
INTERNAL COORDINATES (ANGSTROEM)
--------------------------------
 C      0   0   0     0.000000000000     0.00000000     0.00000000
 C      1   0   0     1.539195668125     0.00000000     0.00000000
 C      1   2   0     1.468173987596    88.52818555     0.00000000
 C      3   1   2     1.349322765623    93.75675487     0.00000000
 H      2   1   3     1.092328095132   115.26781567   244.31830989
 H      2   1   3     1.092328095132   115.26781567   115.68169011
 C      1   2   3     1.328111212414   133.92373466   180.00000000
 H      7   1   2     1.085332853192   118.14679309     0.00000000
 C      7   1   2     1.497380038515   124.84403192   180.00000000
 H      9   7   1     1.089730301447   111.51968318     0.00000000
 H      9   7   1     1.093434454154   111.33066226   120.55711533
 H      9   7   1     1.093434454154   111.33066226   239.44288467
 H      3   1   2     1.081525942834   133.42654708   180.00000000
 C      4   3   1     1.480151484708   135.42330495   180.00000000
 H     14   4   3     1.093742830413   110.93652124   239.09054306
 H     14   4   3     1.089870211196   111.56440013     0.00000000
 H     14   4   3     1.093742830413   110.93652124   120.90945694

---------------------------
INTERNAL COORDINATES (A.U.)
---------------------------
 C      0   0   0     0.000000000000     0.00000000     0.00000000
 C      1   0   0     2.908658279274     0.00000000     0.00000000
 C      1   2   0     2.774446753503    88.52818555     0.00000000
 C      3   1   2     2.549850493293    93.75675487     0.00000000
 H      2   1   3     2.064200948187   115.26781567   244.31830989
 H      2   1   3     2.064200948187   115.26781567   115.68169011
 C      1   2   3     2.509766466852   133.92373466   180.00000000
 H      7   1   2     2.050981856681   118.14679309     0.00000000
 C      7   1   2     2.829638191194   124.84403192   180.00000000
 H      9   7   1     2.059291829569   111.51968318     0.00000000
 H      9   7   1     2.066291663746   111.33066226   120.55711533
 H      9   7   1     2.066291663746   111.33066226   239.44288467
 H      3   1   2     2.043787838688   133.42654708   180.00000000
 C      4   3   1     2.797080942816   135.42330495   180.00000000
 H     14   4   3     2.066874410421   110.93652124   239.09054306
 H     14   4   3     2.059556220680   111.56440013     0.00000000
 H     14   4   3     2.066874410421   110.93652124   120.90945694

---------------------
BASIS SET INFORMATION
---------------------
There are 2 groups of distinct atoms

 Group   1 Type C   : 8s4p1d contracted to 4s2p1d pattern {5111/31/1}
 Group   2 Type H   : 4s contracted to 2s pattern {31}

Atom   0C    basis set group =>   1
Atom   1C    basis set group =>   1
Atom   2C    basis set group =>   1
Atom   3C    basis set group =>   1
Atom   4H    basis set group =>   2
Atom   5H    basis set group =>   2
Atom   6C    basis set group =>   1
Atom   7H    basis set group =>   2
Atom   8C    basis set group =>   1
Atom   9H    basis set group =>   2
Atom  10H    basis set group =>   2
Atom  11H    basis set group =>   2
Atom  12H    basis set group =>   2
Atom  13C    basis set group =>   1
Atom  14H    basis set group =>   2
Atom  15H    basis set group =>   2
Atom  16H    basis set group =>   2
---------------------------------
AUXILIARY/J BASIS SET INFORMATION
---------------------------------
There are 2 groups of distinct atoms

 Group   1 Type C   : 12s5p4d2f1g contracted to 6s4p3d1f1g pattern {711111/2111/211/2/1}
 Group   2 Type H   : 5s2p1d contracted to 3s1p1d pattern {311/2/1}

Atom   0C    basis set group =>   1
Atom   1C    basis set group =>   1
Atom   2C    basis set group =>   1
Atom   3C    basis set group =>   1
Atom   4H    basis set group =>   2
Atom   5H    basis set group =>   2
Atom   6C    basis set group =>   1
Atom   7H    basis set group =>   2
Atom   8C    basis set group =>   1
Atom   9H    basis set group =>   2
Atom  10H    basis set group =>   2
Atom  11H    basis set group =>   2
Atom  12H    basis set group =>   2
Atom  13C    basis set group =>   1
Atom  14H    basis set group =>   2
Atom  15H    basis set group =>   2
Atom  16H    basis set group =>   2


           ************************************************************
           *        Program running with 4 parallel MPI-processes     *
           *              working on a common directory               *
           ************************************************************
------------------------------------------------------------------------------
                           ORCA GTO INTEGRAL CALCULATION
                           -- RI-GTO INTEGRALS CHOSEN --
------------------------------------------------------------------------------
------------------------------------------------------------------------------
                   ___                                                        
                  /   \      - P O W E R E D   B Y -                         
                 /     \                                                     
                 |  |  |   _    _      __       _____    __    __             
                 |  |  |  | |  | |    /  \     |  _  \  |  |  /  |          
                  \  \/   | |  | |   /    \    | | | |  |  | /  /          
                 / \  \   | |__| |  /  /\  \   | |_| |  |  |/  /          
                |  |  |   |  __  | /  /__\  \  |    /   |      \           
                |  |  |   | |  | | |   __   |  |    \   |  |\   \          
                \     /   | |  | | |  |  |  |  | |\  \  |  | \   \       
                 \___/    |_|  |_| |__|  |__|  |_| \__\ |__|  \__/        
                                                                              
                      - O R C A' S   B I G   F R I E N D -                    
                                      &                                       
                       - I N T E G R A L  F E E D E R -                       
                                                                              
 v1 FN, 2020, v2 2021                                                         
------------------------------------------------------------------------------


Reading SHARK input file pbeh-3c.SHARKINP.tmp ... ok
----------------------
SHARK INTEGRAL PACKAGE
----------------------

Number of atoms                             ...     17
Number of basis functions                   ...    125
Number of shells                            ...     69
Maximum angular momentum                    ...      2
Integral batch strategy                     ... SHARK/LIBINT Hybrid
RI-J (if used) integral strategy            ... SPLIT-RIJ (Revised 2003 algorithm where possible)
Printlevel                                  ...      1
Contraction scheme used                     ... SEGMENTED contraction
Coulomb Range Separation                    ... NOT USED
Exchange Range Separation                   ... NOT USED
Finite Nucleus Model                        ... NOT USED
Auxiliary Coulomb fitting basis             ... AVAILABLE
   # of basis functions in Aux-J            ...    453
   # of shells in Aux-J                     ...    155
   Maximum angular momentum in Aux-J        ...      4
Auxiliary J/K fitting basis                 ... NOT available
Auxiliary Correlation fitting basis         ... NOT available
Auxiliary 'external' fitting basis          ... NOT available
Integral threshold                          ...     2.500000e-11
Primitive cut-off                           ...     2.500000e-12
Primitive pair pre-selection threshold      ...     2.500000e-12

Calculating pre-screening integrals         ... done (  0.0 sec) Dimension = 69
Organizing shell pair data                  ... done (  0.5 sec)
Shell pair information
Total number of shell pairs                 ...      2415
Shell pairs after pre-screening             ...      2189
Total number of primitive shell pairs       ...      8767
Primitive shell pairs kept                  ...      5711
          la=0 lb=0:   1015 shell pairs
          la=1 lb=0:    646 shell pairs
          la=1 lb=1:    104 shell pairs
          la=2 lb=0:    302 shell pairs
          la=2 lb=1:     96 shell pairs
          la=2 lb=2:     26 shell pairs

Calculating one electron integrals          ... done (  0.0 sec)
Calculating RI/J V-Matrix + Cholesky decomp.... done (  0.1 sec)
Calculating Nuclear repulsion               ... done (  0.0 sec) ENN=    273.990696008019 Eh

SHARK setup successfully completed in   1.7 seconds

Maximum memory used throughout the entire GTOINT-calculation: 10.9 MB


           ************************************************************
           *        Program running with 4 parallel MPI-processes     *
           *              working on a common directory               *
           ************************************************************
-------------------------------------------------------------------------------
                                 ORCA SCF
-------------------------------------------------------------------------------

------------
SCF SETTINGS
------------
Hamiltonian:
 Density Functional     Method          .... DFT(GTOs)
 Exchange Functional    Exchange        .... PBE
   PBE kappa parameter   XKappa         ....  1.024500
   PBE mue parameter    XMuePBE         ....  0.123457
 Correlation Functional Correlation     .... PBE
   PBE beta parameter  CBetaPBE         ....  0.030000
 LDA part of GGA corr.  LDAOpt          .... PW91-LDA
 Gradients option       PostSCFGGA      .... off
 Hybrid DFT is turned on
   Fraction HF Exchange ScalHFX         ....  0.420000
   Scaling of DF-GGA-X  ScalDFX         ....  0.580000
   Scaling of DF-GGA-C  ScalDFC         ....  1.000000
   Scaling of DF-LDA-C  ScalLDAC        ....  1.000000
   Perturbative correction              ....  0.000000
   Density functional embedding theory  .... OFF
 RI-approximation to the Coulomb term is turned on
   Number of AuxJ basis functions       .... 453
   RIJ-ON(X) (HFX calculated with O(N)) .... on
   Number of AuxJ basis functions       .... 453
   RIJ-COSX (HFX calculated with COS-X)).... on


General Settings:
 Integral files         IntName         .... pbeh-3c
 Hartree-Fock type      HFTyp           .... RHF
 Total Charge           Charge          ....    0
 Multiplicity           Mult            ....    1
 Number of Electrons    NEL             ....   52
 Basis Dimension        Dim             ....  125
 Nuclear Repulsion      ENuc            ....    273.9906960080 Eh

Convergence Acceleration:
 DIIS                   CNVDIIS         .... on
   Start iteration      DIISMaxIt       ....    12
   Startup error        DIISStart       ....  0.200000
   # of expansion vecs  DIISMaxEq       ....     5
   Bias factor          DIISBfac        ....   1.050
   Max. coefficient     DIISMaxC        ....  10.000
 Trust-Rad. Augm. Hess. CNVTRAH         .... auto
   Auto Start mean grad. ratio tolernc. ....  1.125000
   Auto Start start iteration           ....    20
   Auto Start num. interpolation iter.  ....    10
   Max. Number of Micro iterations      ....    16
   Max. Number of Macro iterations      .... Maxiter - #DIIS iter
   Number of Davidson start vectors     ....     2
   Converg. threshold I  (grad. norm)   ....   1.000e-05
   Converg. threshold II (energy diff.) ....   1.000e-08
   Grad. Scal. Fac. for Micro threshold ....   0.100
   Minimum threshold for Micro iter.    ....   0.010
   NR start threshold (gradient norm)   ....   0.001
   Initial trust radius                 ....   0.400
   Minimum AH scaling param. (alpha)    ....   1.000
   Maximum AH scaling param. (alpha)    .... 1000.000
   Orbital update algorithm             .... Taylor
   White noise on init. David. guess    .... on
   Maximum white noise                  ....   0.010
   Quad. conv. algorithm                .... NR
   COSX micro iterations for RIJONX calc.... off
 SOSCF                  CNVSOSCF        .... on
   Start iteration      SOSCFMaxIt      ....   150
   Startup grad/error   SOSCFStart      ....  0.003300
 Level Shifting         CNVShift        .... on
   Level shift para.    LevelShift      ....    0.2500
   Turn off err/grad.   ShiftErr        ....    0.0010
 Zerner damping         CNVZerner       .... off
 Static damping         CNVDamp         .... on
   Fraction old density DampFac         ....    0.7000
   Max. Damping (<1)    DampMax         ....    0.9800
   Min. Damping (>=0)   DampMin         ....    0.0000
   Turn off err/grad.   DampErr         ....    0.1000
 Fernandez-Rico         CNVRico         .... off

SCF Procedure:
 Maximum # iterations   MaxIter         ....   125
 SCF integral mode      SCFMode         .... Direct
   Integral package                     .... SHARK and LIBINT hybrid scheme
 Reset frequency        DirectResetFreq ....    20
 Integral Threshold     Thresh          ....  2.500e-11 Eh
 Primitive CutOff       TCut            ....  2.500e-12 Eh

Convergence Tolerance:
 Convergence Check Mode ConvCheckMode   .... Total+1el-Energy
 Convergence forced     ConvForced      .... 0
 Energy Change          TolE            ....  1.000e-08 Eh
 1-El. energy change                    ....  1.000e-05 Eh
 Orbital Gradient       TolG            ....  1.000e-05
 Orbital Rotation angle TolX            ....  1.000e-05
 DIIS Error             TolErr          ....  5.000e-07


Diagonalization of the overlap matrix:
Smallest eigenvalue                        ... 1.093e-03
Time for diagonalization                   ...    0.003 sec
Threshold for overlap eigenvalues          ... 1.000e-08
Number of eigenvalues below threshold      ... 0
Time for construction of square roots      ...    0.004 sec
Total time needed                          ...    0.007 sec

--------------------------------
INITIAL GUESS: MINIMAL BASIS EHT
--------------------------------
The minimal basis has 45 functions
EHT matrix was diagonalized
Basis set overlap was calculated now projecting the orbitals
Using GuessMode=FMatrix for the initial guess
C*T matrix was formed
Effective Fockian was calculated
Effective Fockian was diagonalized
Initial density was built
                      ------------------
                      INITIAL GUESS DONE
                      ------------------
-------------------
DFT GRID GENERATION
-------------------

General Integration Accuracy     IntAcc      ... 4.959
Radial Grid Type                 RadialGrid  ... OptM3 with GC (2021)
Angular Grid (max. ang.)         AngularGrid ... 6 (Lebedev-590)
Angular grid pruning method      GridPruning ... 4 (adaptive)
Weight generation scheme         WeightScheme... Becke
Basis function cutoff            BFCut       ... 1.0000e-11
Integration weight cutoff        WCut        ... 1.0000e-14
Angular grids for H and He will be reduced by one unit
Partially contracted basis set               ... off
Rotationally invariant grid construction     ... off

Total number of grid points                  ...   187533
Total number of batches                      ...     2938
Average number of points per batch           ...       63
Average number of grid points per atom       ...    11031
Time for grid setup =    3.830 sec

--------------------
COSX GRID GENERATION
--------------------

GRIDX 1
-------
General Integration Accuracy     IntAcc      ... 4.020
Radial Grid Type                 RadialGrid  ... OptM3 with GC (2021)
Angular Grid (max. ang.)         AngularGrid ... 2 (Lebedev-110)
Angular grid pruning method      GridPruning ... 4 (adaptive)
Weight generation scheme         WeightScheme... Becke
Basis function cutoff            BFCut       ... 1.0000e-11
Integration weight cutoff        WCut        ... 1.0000e-14
Angular grids for H and He will be reduced by one unit
Partially contracted basis set               ... on
Rotationally invariant grid construction     ... off

Total number of grid points                  ...    20283
Total number of batches                      ...      322
Average number of points per batch           ...       62
Average number of grid points per atom       ...     1193
UseSFitting                                  ... on

GRIDX 2
-------
General Integration Accuracy     IntAcc      ... 4.338
Radial Grid Type                 RadialGrid  ... OptM3 with GC (2021)
Angular Grid (max. ang.)         AngularGrid ... 3 (Lebedev-194)
Angular grid pruning method      GridPruning ... 4 (adaptive)
Weight generation scheme         WeightScheme... Becke
Basis function cutoff            BFCut       ... 1.0000e-11
Integration weight cutoff        WCut        ... 1.0000e-14
Angular grids for H and He will be reduced by one unit
Partially contracted basis set               ... on
Rotationally invariant grid construction     ... off

Total number of grid points                  ...    44397
Total number of batches                      ...      702
Average number of points per batch           ...       63
Average number of grid points per atom       ...     2612
UseSFitting                                  ... on

GRIDX 3
-------
General Integration Accuracy     IntAcc      ... 4.871
Radial Grid Type                 RadialGrid  ... OptM3 with GC (2021)
Angular Grid (max. ang.)         AngularGrid ... 4 (Lebedev-302)
Angular grid pruning method      GridPruning ... 4 (adaptive)
Weight generation scheme         WeightScheme... Becke
Basis function cutoff            BFCut       ... 1.0000e-11
Integration weight cutoff        WCut        ... 1.0000e-14
Angular grids for H and He will be reduced by one unit
Partially contracted basis set               ... on
Rotationally invariant grid construction     ... off

Total number of grid points                  ...    86608
Total number of batches                      ...     1363
Average number of points per batch           ...       63
Average number of grid points per atom       ...     5095
UseSFitting                                  ... on

Time for X-Grid setup             =    4.340 sec

--------------
SCF ITERATIONS
--------------
ITER       Energy         Delta-E        Max-DP      RMS-DP      [F,P]     Damp
               ***  Starting incremental Fock matrix formation  ***
  0   -271.4526077181   0.000000000000 0.12314894  0.00502793  0.4132906 0.7000
  1   -271.6416792153  -0.189071497219 0.08835489  0.00371929  0.2936021 0.7000
  2   -271.7768380488  -0.135158833477 0.06371400  0.00274953  0.2075476 0.7000
                               ***Turning on DIIS***
  3   -271.8730009686  -0.096162919772 0.04577835  0.00203328  0.1465197 0.7000
  4   -271.9413223988  -0.068321430205 0.03449702  0.00158804  0.1032924 0.7000
  5   -271.9897437926  -0.048421393797 0.08381722  0.00394287  0.0723882 0.0000
                      *** Initiating the SOSCF procedure ***
                           *** Shutting down DIIS ***
                      *** Re-Reading the Fockian *** 
                      *** Removing any level shift *** 
ITER      Energy       Delta-E        Grad      Rot      Max-DP    RMS-DP
  6   -272.10509014  -0.1153463520  0.001549  0.001549  0.002842  0.000130
               *** Restarting incremental Fock matrix formation ***
  7   -272.10514667  -0.0000565288  0.000541  0.000610  0.001260  0.000061
  8   -272.10515336  -0.0000066826  0.000189  0.000630  0.000890  0.000028
  9   -272.10515334   0.0000000123  0.000244  0.000383  0.000477  0.000014
 10   -272.10515408  -0.0000007385  0.000019  0.000043  0.000085  0.000003
 11   -272.10515409  -0.0000000039  0.000015  0.000013  0.000040  0.000001
                  ***Gradient check signals convergence***
              ***Rediagonalizing the Fockian in SOSCF/NRSCF***

               *****************************************************
               *                     SUCCESS                       *
               *           SCF CONVERGED AFTER  12 CYCLES          *
               *****************************************************

Old exchange energy                            =    -16.714390740 Eh
New exchange energy                            =    -16.714391842 Eh
Exchange energy change after final integration =     -0.000001103 Eh
Total energy after final integration           =   -272.105155199 Eh
Final COS-X integration done in                =     3.425 sec

----------------
TOTAL SCF ENERGY
----------------

Total Energy       :         -272.10515520 Eh           -7404.35770 eV

Components:
Nuclear Repulsion  :          273.99069601 Eh            7455.66588 eV
Electronic Energy  :         -546.09585121 Eh          -14860.02358 eV
One Electron Energy:         -908.11906717 Eh          -24711.17611 eV
Two Electron Energy:          362.02321597 Eh            9851.15253 eV
Max COSX asymmetry :            0.00000150 Eh               0.00004 eV

Virial components:
Potential Energy   :         -541.97781544 Eh          -14747.96613 eV
Kinetic Energy     :          269.87266024 Eh            7343.60843 eV
Virial Ratio       :            2.00827240


DFT components:
N(Alpha)           :       26.000001358204 electrons
N(Beta)            :       26.000001358204 electrons
N(Total)           :       52.000002716408 electrons
E(X)               :      -22.171927448733 Eh       
E(C)               :       -2.214763099740 Eh       
E(XC)              :      -24.386690548473 Eh       
DFET-embed. en.    :        0.000000000000 Eh       

---------------
SCF CONVERGENCE
---------------

  Last Energy change         ...   -1.0539e-08  Tolerance :   1.0000e-08
  Last MAX-Density change    ...    1.5543e-15  Tolerance :   1.0000e-07
  Last RMS-Density change    ...    3.6541e-17  Tolerance :   5.0000e-09
  Last Orbital Gradient      ...    8.8878e-07  Tolerance :   1.0000e-05
  Last Orbital Rotation      ...    1.8934e-06  Tolerance :   1.0000e-05

             **** THE GBW FILE WAS UPDATED (pbeh-3c.gbw) ****
             **** DENSITY pbeh-3c.scfp WAS UPDATED ****
             **** ENERGY FILE WAS UPDATED (pbeh-3c.en.tmp) ****
             **** THE GBW FILE WAS UPDATED (pbeh-3c.gbw) ****
             **** DENSITY pbeh-3c.scfp WAS UPDATED ****
----------------
ORBITAL ENERGIES
----------------

  NO   OCC          E(Eh)            E(eV) 
   0   2.0000     -10.457251      -284.5563 
   1   2.0000     -10.443349      -284.1780 
   2   2.0000     -10.438404      -284.0434 
   3   2.0000     -10.437922      -284.0303 
   4   2.0000     -10.437018      -284.0057 
   5   2.0000     -10.429534      -283.8020 
   6   2.0000     -10.425019      -283.6792 
   7   2.0000      -0.966625       -26.3032 
   8   2.0000      -0.858094       -23.3499 
   9   2.0000      -0.814230       -22.1563 
  10   2.0000      -0.739954       -20.1352 
  11   2.0000      -0.726357       -19.7652 
  12   2.0000      -0.605294       -16.4709 
  13   2.0000      -0.573215       -15.5980 
  14   2.0000      -0.529672       -14.4131 
  15   2.0000      -0.502928       -13.6854 
  16   2.0000      -0.494821       -13.4648 
  17   2.0000      -0.468021       -12.7355 
  18   2.0000      -0.462770       -12.5926 
  19   2.0000      -0.453731       -12.3466 
  20   2.0000      -0.431353       -11.7377 
  21   2.0000      -0.402593       -10.9551 
  22   2.0000      -0.376040       -10.2326 
  23   2.0000      -0.363456        -9.8901 
  24   2.0000      -0.329246        -8.9592 
  25   2.0000      -0.248012        -6.7488 
  26   0.0000       0.020171         0.5489 
  27   0.0000       0.109086         2.9684 
  28   0.0000       0.151867         4.1325 
  29   0.0000       0.164190         4.4678 
  30   0.0000       0.182775         4.9736 
  31   0.0000       0.191472         5.2102 
  32   0.0000       0.198047         5.3891 
  33   0.0000       0.209721         5.7068 
  34   0.0000       0.219089         5.9617 
  35   0.0000       0.219287         5.9671 
  36   0.0000       0.228855         6.2275 
  37   0.0000       0.240396         6.5415 
  38   0.0000       0.248793         6.7700 
  39   0.0000       0.273754         7.4492 
  40   0.0000       0.278460         7.5773 
  41   0.0000       0.312138         8.4937 
  42   0.0000       0.357348         9.7239 
  43   0.0000       0.400370        10.8946 
  44   0.0000       0.437862        11.9148 
  45   0.0000       0.482929        13.1412 
  46   0.0000       0.506058        13.7705 
  47   0.0000       0.506229        13.7752 
  48   0.0000       0.535440        14.5701 
  49   0.0000       0.547265        14.8918 
  50   0.0000       0.583462        15.8768 
  51   0.0000       0.588685        16.0189 
  52   0.0000       0.613964        16.7068 
  53   0.0000       0.623383        16.9631 
  54   0.0000       0.639501        17.4017 
  55   0.0000       0.647840        17.6286 
  56   0.0000       0.668178        18.1820 
  57   0.0000       0.715027        19.4569 
  58   0.0000       0.736479        20.0406 
  59   0.0000       0.766082        20.8462 
  60   0.0000       0.771238        20.9865 
  61   0.0000       0.803578        21.8665 
  62   0.0000       0.836106        22.7516 
  63   0.0000       0.873677        23.7740 
  64   0.0000       0.899540        24.4777 
  65   0.0000       0.942534        25.6477 
  66   0.0000       0.991807        26.9884 
  67   0.0000       1.000647        27.2290 
  68   0.0000       1.007658        27.4198 
  69   0.0000       1.012238        27.5444 
  70   0.0000       1.025801        27.9135 
  71   0.0000       1.038968        28.2718 
  72   0.0000       1.051055        28.6007 
  73   0.0000       1.064330        28.9619 
  74   0.0000       1.086672        29.5698 
  75   0.0000       1.097149        29.8549 
  76   0.0000       1.172401        31.9027 
  77   0.0000       1.201449        32.6931 
  78   0.0000       1.296991        35.2929 
  79   0.0000       1.330690        36.2099 
  80   0.0000       1.348146        36.6849 
  81   0.0000       1.385161        37.6922 
  82   0.0000       1.413175        38.4544 
  83   0.0000       1.467353        39.9287 
  84   0.0000       1.486656        40.4540 
  85   0.0000       1.532668        41.7060 
  86   0.0000       1.605435        43.6861 
  87   0.0000       1.686142        45.8823 
  88   0.0000       1.747792        47.5598 
  89   0.0000       1.847294        50.2674 
  90   0.0000       1.867990        50.8306 
  91   0.0000       1.872504        50.9534 
  92   0.0000       1.951886        53.1135 
  93   0.0000       1.992446        54.2172 
  94   0.0000       1.993431        54.2440 
  95   0.0000       2.054272        55.8996 
  96   0.0000       2.098576        57.1052 
  97   0.0000       2.105980        57.3066 
  98   0.0000       2.136176        58.1283 
  99   0.0000       2.199094        59.8404 
 100   0.0000       2.221364        60.4464 
 101   0.0000       2.228944        60.6527 
 102   0.0000       2.309420        62.8425 
 103   0.0000       2.318194        63.0813 
 104   0.0000       2.347921        63.8902 
 105   0.0000       2.401488        65.3478 
 106   0.0000       2.425504        66.0013 
 107   0.0000       2.435027        66.2605 
 108   0.0000       2.498800        67.9958 
 109   0.0000       2.542294        69.1793 
 110   0.0000       2.570923        69.9584 
 111   0.0000       2.618881        71.2634 
 112   0.0000       2.674533        72.7777 
 113   0.0000       2.742789        74.6351 
 114   0.0000       2.902619        78.9843 
 115   0.0000       2.943497        80.0966 
 116   0.0000       3.204157        87.1895 
 117   0.0000       3.273150        89.0669 
 118   0.0000      13.314954       362.3183 
 119   0.0000      13.619010       370.5921 
 120   0.0000      13.825082       376.1996 
 121   0.0000      13.896636       378.1467 
 122   0.0000      13.937054       379.2465 
 123   0.0000      14.176930       385.7739 
 124   0.0000      14.443597       393.0303 

                    ********************************
                    * MULLIKEN POPULATION ANALYSIS *
                    ********************************

-----------------------
MULLIKEN ATOMIC CHARGES
-----------------------
   0 C :    0.169312
   1 C :   -0.483433
   2 C :   -0.251144
   3 C :    0.106588
   4 H :    0.228513
   5 H :    0.228513
   6 C :   -0.337442
   7 H :    0.206209
   8 C :   -0.683386
   9 H :    0.221995
  10 H :    0.221650
  11 H :    0.221650
  12 H :    0.192932
  13 C :   -0.738374
  14 H :    0.231776
  15 H :    0.232864
  16 H :    0.231776
Sum of atomic charges:    0.0000000

--------------------------------
MULLIKEN REDUCED ORBITAL CHARGES
--------------------------------
  0 C s       :     3.163315  s :     3.163315
      pz      :     0.976327  p :     2.615944
      px      :     0.876234
      py      :     0.763383
      dz2     :     0.003615  d :     0.051429
      dxz     :     0.003251
      dyz     :     0.012579
      dx2y2   :     0.014853
      dxy     :     0.017132
  1 C s       :     3.352619  s :     3.352619
      pz      :     1.166099  p :     3.085116
      px      :     0.985695
      py      :     0.933322
      dz2     :     0.007541  d :     0.045699
      dxz     :     0.014900
      dyz     :     0.004285
      dx2y2   :     0.008429
      dxy     :     0.010544
  2 C s       :     3.289209  s :     3.289209
      pz      :     1.022311  p :     2.918143
      px      :     0.957106
      py      :     0.938726
      dz2     :     0.004020  d :     0.043792
      dxz     :     0.005968
      dyz     :     0.004224
      dx2y2   :     0.015397
      dxy     :     0.014182
  3 C s       :     3.198772  s :     3.198772
      pz      :     0.918097  p :     2.643948
      px      :     0.902541
      py      :     0.823311
      dz2     :     0.003517  d :     0.050692
      dxz     :     0.007398
      dyz     :     0.006840
      dx2y2   :     0.015200
      dxy     :     0.017736
  4 H s       :     0.771487  s :     0.771487
  5 H s       :     0.771487  s :     0.771487
  6 C s       :     3.317485  s :     3.317485
      pz      :     1.035042  p :     2.980121
      px      :     0.939865
      py      :     1.005213
      dz2     :     0.003764  d :     0.039836
      dxz     :     0.003305
      dyz     :     0.006324
      dx2y2   :     0.010271
      dxy     :     0.016172
  7 H s       :     0.793791  s :     0.793791
  8 C s       :     3.392421  s :     3.392421
      pz      :     1.126119  p :     3.253324
      px      :     0.993309
      py      :     1.133895
      dz2     :     0.006938  d :     0.037641
      dxz     :     0.004771
      dyz     :     0.010529
      dx2y2   :     0.005485
      dxy     :     0.009917
  9 H s       :     0.778005  s :     0.778005
 10 H s       :     0.778350  s :     0.778350
 11 H s       :     0.778350  s :     0.778350
 12 H s       :     0.807068  s :     0.807068
 13 C s       :     3.426778  s :     3.426778
      pz      :     1.137391  p :     3.274463
      px      :     1.142428
      py      :     0.994643
      dz2     :     0.007001  d :     0.037133
      dxz     :     0.010175
      dyz     :     0.004135
      dx2y2   :     0.006008
      dxy     :     0.009814
 14 H s       :     0.768224  s :     0.768224
 15 H s       :     0.767136  s :     0.767136
 16 H s       :     0.768224  s :     0.768224


                     *******************************
                     * LOEWDIN POPULATION ANALYSIS *
                     *******************************

----------------------
LOEWDIN ATOMIC CHARGES
----------------------
   0 C :   -0.046253
   1 C :   -0.212378
   2 C :   -0.151149
   3 C :   -0.031930
   4 H :    0.131580
   5 H :    0.131580
   6 C :   -0.182822
   7 H :    0.130952
   8 C :   -0.353256
   9 H :    0.130709
  10 H :    0.131963
  11 H :    0.131963
  12 H :    0.125457
  13 C :   -0.361172
  14 H :    0.142222
  15 H :    0.140312
  16 H :    0.142222

-------------------------------
LOEWDIN REDUCED ORBITAL CHARGES
-------------------------------
  0 C s       :     2.857105  s :     2.857105
      pz      :     0.971812  p :     3.067878
      px      :     1.021039
      py      :     1.075027
      dz2     :     0.007379  d :     0.121270
      dxz     :     0.006814
      dyz     :     0.024579
      dx2y2   :     0.038737
      dxy     :     0.043761
  1 C s       :     2.916808  s :     2.916808
      pz      :     1.121181  p :     3.206053
      px      :     1.051356
      py      :     1.033516
      dz2     :     0.013191  d :     0.089517
      dxz     :     0.026773
      dyz     :     0.008260
      dx2y2   :     0.017636
      dxy     :     0.023657
  2 C s       :     2.912888  s :     2.912888
      pz      :     1.015376  p :     3.144022
      px      :     1.083744
      py      :     1.044902
      dz2     :     0.007259  d :     0.094239
      dxz     :     0.008449
      dyz     :     0.009105
      dx2y2   :     0.035388
      dxy     :     0.034036
  3 C s       :     2.870289  s :     2.870289
      pz      :     0.921509  p :     3.046449
      px      :     1.087605
      py      :     1.037335
      dz2     :     0.007203  d :     0.115192
      dxz     :     0.013814
      dyz     :     0.012749
      dx2y2   :     0.035908
      dxy     :     0.045519
  4 H s       :     0.868420  s :     0.868420
  5 H s       :     0.868420  s :     0.868420
  6 C s       :     2.901399  s :     2.901399
      pz      :     1.032706  p :     3.193077
      px      :     1.058371
      py      :     1.101999
      dz2     :     0.006204  d :     0.088346
      dxz     :     0.007149
      dyz     :     0.011190
      dx2y2   :     0.026535
      dxy     :     0.037269
  7 H s       :     0.869048  s :     0.869048
  8 C s       :     2.943291  s :     2.943291
      pz      :     1.129759  p :     3.339103
      px      :     1.084933
      py      :     1.124412
      dz2     :     0.012078  d :     0.070862
      dxz     :     0.009625
      dyz     :     0.017679
      dx2y2   :     0.012064
      dxy     :     0.019417
  9 H s       :     0.869291  s :     0.869291
 10 H s       :     0.868037  s :     0.868037
 11 H s       :     0.868037  s :     0.868037
 12 H s       :     0.874543  s :     0.874543
 13 C s       :     2.941037  s :     2.941037
      pz      :     1.132139  p :     3.349528
      px      :     1.130401
      py      :     1.086988
      dz2     :     0.012346  d :     0.070607
      dxz     :     0.016964
      dyz     :     0.008630
      dx2y2   :     0.013206
      dxy     :     0.019461
 14 H s       :     0.857778  s :     0.857778
 15 H s       :     0.859688  s :     0.859688
 16 H s       :     0.857778  s :     0.857778


                      *****************************
                      * MAYER POPULATION ANALYSIS *
                      *****************************

  NA   - Mulliken gross atomic population
  ZA   - Total nuclear charge
  QA   - Mulliken gross atomic charge
  VA   - Mayer's total valence
  BVA  - Mayer's bonded valence
  FA   - Mayer's free valence

  ATOM       NA         ZA         QA         VA         BVA        FA
  0 C      5.8307     6.0000     0.1693     3.7353     3.7353     0.0000
  1 C      6.4834     6.0000    -0.4834     3.7176     3.7176    -0.0000
  2 C      6.2511     6.0000    -0.2511     3.7594     3.7594     0.0000
  3 C      5.8934     6.0000     0.1066     3.6999     3.6999    -0.0000
  4 H      0.7715     1.0000     0.2285     0.9027     0.9027     0.0000
  5 H      0.7715     1.0000     0.2285     0.9027     0.9027    -0.0000
  6 C      6.3374     6.0000    -0.3374     3.7291     3.7291    -0.0000
  7 H      0.7938     1.0000     0.2062     0.9226     0.9226    -0.0000
  8 C      6.6834     6.0000    -0.6834     3.7512     3.7512    -0.0000
  9 H      0.7780     1.0000     0.2220     0.9140     0.9140    -0.0000
 10 H      0.7783     1.0000     0.2217     0.9056     0.9056    -0.0000
 11 H      0.7783     1.0000     0.2217     0.9056     0.9056     0.0000
 12 H      0.8071     1.0000     0.1929     0.9314     0.9314     0.0000
 13 C      6.7384     6.0000    -0.7384     3.7089     3.7089    -0.0000
 14 H      0.7682     1.0000     0.2318     0.9043     0.9043    -0.0000
 15 H      0.7671     1.0000     0.2329     0.9091     0.9091     0.0000
 16 H      0.7682     1.0000     0.2318     0.9043     0.9043     0.0000

  Mayer bond orders larger than 0.100000
B(  0-C ,  1-C ) :   0.9594 B(  0-C ,  2-C ) :   1.0776 B(  0-C ,  6-C ) :   1.7661 
B(  1-C ,  3-C ) :   0.9965 B(  1-C ,  4-H ) :   0.9057 B(  1-C ,  5-H ) :   0.9057 
B(  2-C ,  3-C ) :   1.7509 B(  2-C , 12-H ) :   0.9344 B(  3-C ,  6-C ) :   0.1085 
B(  3-C , 13-C ) :   0.9673 B(  6-C ,  7-H ) :   0.9261 B(  6-C ,  8-C ) :   1.0071 
B(  8-C ,  9-H ) :   0.9313 B(  8-C , 10-H ) :   0.9185 B(  8-C , 11-H ) :   0.9185 
B( 13-C , 14-H ) :   0.9153 B( 13-C , 15-H ) :   0.9289 B( 13-C , 16-H ) :   0.9153 


-------
TIMINGS
-------

Total SCF time: 0 days 0 hours 1 min 14 sec 

Total time                  ....      74.780 sec
Sum of individual times     ....      68.916 sec  ( 92.2%)

Fock matrix formation       ....      55.981 sec  ( 74.9%)
  Split-RI-J                ....       5.242 sec  (  9.4% of F)
  Chain of spheres X        ....      25.760 sec  ( 46.0% of F)
  XC integration            ....      14.080 sec  ( 25.2% of F)
    Basis function eval.    ....       3.080 sec  ( 21.9% of XC)
    Density eval.           ....       1.736 sec  ( 12.3% of XC)
    XC-Functional eval.     ....       1.386 sec  (  9.8% of XC)
    XC-Potential eval.      ....       1.256 sec  (  8.9% of XC)
Diagonalization             ....       1.170 sec  (  1.6%)
Density matrix formation    ....       0.039 sec  (  0.1%)
Population analysis         ....       0.820 sec  (  1.1%)
Initial guess               ....       0.011 sec  (  0.0%)
Orbital Transformation      ....       0.000 sec  (  0.0%)
Orbital Orthonormalization  ....       0.000 sec  (  0.0%)
DIIS solution               ....       1.790 sec  (  2.4%)
SOSCF solution              ....       0.936 sec  (  1.3%)
Grid generation             ....       8.170 sec  ( 10.9%)

Maximum memory used throughout the entire SCF-calculation: 54.5 MB


-------------------------------------------------------------------------------
                          DFT DISPERSION CORRECTION                            
                                                                               
                              DFTD3 V3.1  Rev 1                                
                          USING Becke-Johnson damping                          
-------------------------------------------------------------------------------
The PBEh-3c composite method is recognized
Using three-body term ABC
Active option DFTDOPT                   ...         4   

molecular C6(AA) [au] = 2482.014626 


            DFT-D V3
 parameters
 s6 scaling factor         :     1.0000 
 a1 scaling factor         :     0.4860 
 s8 scaling factor         :     0.0000 
 a2 scaling factor         :     4.5000 
 Damping factor alpha9(ATM):    16.0000 
 ad hoc parameters k1-k3   :    16.0000     1.3333    -4.0000 

 Edisp/kcal,au: -4.782357531923  -0.007621171025 
 E6   /kcal   :  -4.788197636 
 E8   /kcal   :  -0.000000000 
 E6(ABC)      :   0.005840104 
 % E8         :   0.000000000 
 % E6(ABC)    :  -0.122117682 

-------------------------   ----------------
Dispersion correction           -0.007621171
-------------------------   ----------------

------------------   -----------------
gCP correction             0.018652255
------------------   -----------------

-------------------------   --------------------
FINAL SINGLE POINT ENERGY      -272.094124115182
-------------------------   --------------------


                            ***************************************
                            *     ORCA property calculations      *
                            ***************************************

                                    ---------------------
                                    Active property flags
                                    ---------------------
   (+) Dipole Moment


------------------------------------------------------------------------------
                       ORCA ELECTRIC PROPERTIES CALCULATION
------------------------------------------------------------------------------

Dipole Moment Calculation                       ... on
Quadrupole Moment Calculation                   ... off
Polarizability Calculation                      ... off
GBWName                                         ... pbeh-3c.gbw
Electron density                                ... pbeh-3c.scfp
The origin for moment calculation is the CENTER OF MASS  = ( 0.011444,  0.002315  0.000000)

-------------
DIPOLE MOMENT
-------------
                                X             Y             Z
Electronic contribution:      0.72508      -0.16302      -0.00000
Nuclear contribution   :     -0.59511      -0.12040       0.00000
                        -----------------------------------------
Total Dipole Moment    :      0.12997      -0.28341      -0.00000
                        -----------------------------------------
Magnitude (a.u.)       :      0.31180
Magnitude (Debye)      :      0.79252



--------------------
Rotational spectrum 
--------------------
 
Rotational constants in cm-1:     0.286607     0.047036     0.041336 
Rotational constants in MHz :  8592.272345  1410.101457  1239.213136 

 Dipole components along the rotational axes: 
x,y,z [a.u.] :     0.311491     0.013777    -0.000000 
x,y,z [Debye]:     0.791747     0.035018    -0.000000 

 

Timings for individual modules:

Sum of individual times         ...       77.965 sec (=   1.299 min)
GTO integral calculation        ...        2.082 sec (=   0.035 min)   2.7 %
SCF iterations                  ...       75.883 sec (=   1.265 min)  97.3 %
                             ****ORCA TERMINATED NORMALLY****
TOTAL RUN TIME: 0 days 0 hours 1 minutes 19 seconds 720 msec
