
                                 *****************
                                 * O   R   C   A *
                                 *****************

                                            #,                                       
                                            ###                                      
                                            ####                                     
                                            #####                                    
                                            ######                                   
                                           ########,                                 
                                     ,,################,,,,,                         
                               ,,#################################,,                 
                          ,,##########################################,,             
                       ,#########################################, ''#####,          
                    ,#############################################,,   '####,        
                  ,##################################################,,,,####,       
                ,###########''''           ''''###############################       
              ,#####''   ,,,,##########,,,,          '''####'''          '####       
            ,##' ,,,,###########################,,,                        '##       
           ' ,,###''''                  '''############,,,                           
         ,,##''                                '''############,,,,        ,,,,,,###''
      ,#''                                            '''#######################'''  
     '                                                          ''''####''''         
             ,#######,   #######,   ,#######,      ##                                
            ,#'     '#,  ##    ##  ,#'     '#,    #''#        ######   ,####,        
            ##       ##  ##   ,#'  ##            #'  '#       #        #'  '#        
            ##       ##  #######   ##           ,######,      #####,   #    #        
            '#,     ,#'  ##    ##  '#,     ,#' ,#      #,         ##   #,  ,#        
             '#######'   ##     ##  '#######'  #'      '#     #####' # '####'        



                  #######################################################
                  #                        -***-                        #
                  #          Department of theory and spectroscopy      #
                  #    Directorship and core code : Frank Neese         #
                  #        Max Planck Institute fuer Kohlenforschung    #
                  #                Kaiser Wilhelm Platz 1               #
                  #                 D-45470 Muelheim/Ruhr               #
                  #                      Germany                        #
                  #                                                     #
                  #                  All rights reserved                #
                  #                        -***-                        #
                  #######################################################


                         Program Version 5.0.3 -  RELEASE  -


 With contributions from (in alphabetic order):
   Daniel Aravena         : Magnetic Suceptibility
   Michael Atanasov       : Ab Initio Ligand Field Theory (pilot matlab implementation)
   Alexander A. Auer      : GIAO ZORA, VPT2 properties, NMR spectrum
   Ute Becker             : Parallelization
   Giovanni Bistoni       : ED, misc. LED, open-shell LED, HFLD
   Martin Brehm           : Molecular dynamics
   Dmytro Bykov           : SCF Hessian
   Vijay G. Chilkuri      : MRCI spin determinant printing, contributions to CSF-ICE
   Dipayan Datta          : RHF DLPNO-CCSD density
   Achintya Kumar Dutta   : EOM-CC, STEOM-CC
   Dmitry Ganyushin       : Spin-Orbit,Spin-Spin,Magnetic field MRCI
   Miquel Garcia          : C-PCM and meta-GGA Hessian, CC/C-PCM, Gaussian charge scheme
   Yang Guo               : DLPNO-NEVPT2, F12-NEVPT2, CIM, IAO-localization
   Andreas Hansen         : Spin unrestricted coupled pair/coupled cluster methods
   Benjamin Helmich-Paris : MC-RPA, TRAH-SCF, COSX integrals
   Lee Huntington         : MR-EOM, pCC
   Robert Izsak           : Overlap fitted RIJCOSX, COSX-SCS-MP3, EOM
   Marcus Kettner         : VPT2
   Christian Kollmar      : KDIIS, OOCD, Brueckner-CCSD(T), CCSD density, CASPT2, CASPT2-K
   Simone Kossmann        : Meta GGA functionals, TD-DFT gradient, OOMP2, MP2 Hessian
   Martin Krupicka        : Initial AUTO-CI
   Lucas Lang             : DCDCAS
   Marvin Lechner         : AUTO-CI (C++ implementation), FIC-MRCC
   Dagmar Lenk            : GEPOL surface, SMD
   Dimitrios Liakos       : Extrapolation schemes; Compound Job, initial MDCI parallelization
   Dimitrios Manganas     : Further ROCIS development; embedding schemes
   Dimitrios Pantazis     : SARC Basis sets
   Anastasios Papadopoulos: AUTO-CI, single reference methods and gradients
   Taras Petrenko         : DFT Hessian,TD-DFT gradient, ASA, ECA, R-Raman, ABS, FL, XAS/XES, NRVS
   Peter Pinski           : DLPNO-MP2, DLPNO-MP2 Gradient
   Christoph Reimann      : Effective Core Potentials
   Marius Retegan         : Local ZFS, SOC
   Christoph Riplinger    : Optimizer, TS searches, QM/MM, DLPNO-CCSD(T), (RO)-DLPNO pert. Triples
   Tobias Risthaus        : Range-separated hybrids, TD-DFT gradient, RPA, STAB
   Michael Roemelt        : Original ROCIS implementation
   Masaaki Saitow         : Open-shell DLPNO-CCSD energy and density
   Barbara Sandhoefer     : DKH picture change effects
   Avijit Sen             : IP-ROCIS
   Kantharuban Sivalingam : CASSCF convergence, NEVPT2, FIC-MRCI
   Bernardo de Souza      : ESD, SOC TD-DFT
   Georgi Stoychev        : AutoAux, RI-MP2 NMR, DLPNO-MP2 response
   Willem Van den Heuvel  : Paramagnetic NMR
   Boris Wezisla          : Elementary symmetry handling
   Frank Wennmohs         : Technical directorship


 We gratefully acknowledge several colleagues who have allowed us to
 interface, adapt or use parts of their codes:
   Stefan Grimme, W. Hujo, H. Kruse, P. Pracht,  : VdW corrections, initial TS optimization,
                  C. Bannwarth, S. Ehlert          DFT functionals, gCP, sTDA/sTD-DF
   Ed Valeev, F. Pavosevic, A. Kumar             : LibInt (2-el integral package), F12 methods
   Garnet Chan, S. Sharma, J. Yang, R. Olivares  : DMRG
   Ulf Ekstrom                                   : XCFun DFT Library
   Mihaly Kallay                                 : mrcc  (arbitrary order and MRCC methods)
   Jiri Pittner, Ondrej Demel                    : Mk-CCSD
   Frank Weinhold                                : gennbo (NPA and NBO analysis)
   Christopher J. Cramer and Donald G. Truhlar   : smd solvation model
   Lars Goerigk                                  : TD-DFT with DH, B97 family of functionals
   V. Asgeirsson, H. Jonsson                     : NEB implementation
   FAccTs GmbH                                   : IRC, NEB, NEB-TS, DLPNO-Multilevel, CI-OPT
                                                   MM, QMMM, 2- and 3-layer-ONIOM, Crystal-QMMM,
                                                   LR-CPCM, SF, NACMEs, symmetry and pop. for TD-DFT,
                                                   nearIR, NL-DFT gradient (VV10), updates on ESD,
                                                   ML-optimized integration grids
   S Lehtola, MJT Oliveira, MAL Marques          : LibXC Library
   Liviu Ungur et al                             : ANISO software


 Your calculation uses the libint2 library for the computation of 2-el integrals
 For citations please refer to: http://libint.valeyev.net

 Your ORCA version has been built with support for libXC version: 5.1.0
 For citations please refer to: https://tddft.org/programs/libxc/

 This ORCA versions uses:
   CBLAS   interface :  Fast vector & matrix operations
   LAPACKE interface :  Fast linear algebra routines
   SCALAPACK package :  Parallel linear algebra routines
   Shared memory     :  Shared parallel matrices
   BLAS/LAPACK       :  OpenBLAS 0.3.15  USE64BITINT DYNAMIC_ARCH NO_AFFINITY Haswell SINGLE_THREADED
        Core in use  :  Haswell
   Copyright (c) 2011-2014, The OpenBLAS Project




***************************************
The coordinates will be read from file: 2O_B.xyz
***************************************


Your calculation utilizes the geometrical counterpoise correction gCP
Please cite in your paper:
H.Kruse, S. Grimme J.Chem.Phys., 136, (2012), 154101 
   

Your calculation utilizes the atom-pairwise dispersion correction
with the Becke-Johnson damping scheme (D3BJ)
Cite in your paper:
S.Grimme, S.Ehrlich, L.Goerigk, J Comput Chem, (2011), 32, 1456–1465 
S.Grimme, J.Antony, S.Ehrlich and H.Krieg, J.Chem.Phys., 132, (2010), 154104 
   

Your calculation employs the composite approach PBEh-3c.
Please cite in your paper:
S. Grimme, J. G. Brandenburg, C. Bannwarth, A. Hansen J.Chem.Phys., 143, (2015), 054107 
   

================================================================================

----- Orbital basis set information -----
Your calculation utilizes the basis: def2-mSVP

----- AuxJ basis set information -----
Your calculation utilizes the auxiliary basis: def2/J
   F. Weigend, Phys. Chem. Chem. Phys. 8, 1057 (2006).

================================================================================
                                        WARNINGS
                       Please study these warnings very carefully!
================================================================================


INFO   : the flag for use of the SHARK integral package has been found!

================================================================================
                                       INPUT FILE
================================================================================
NAME = pbeh-3c.inp
|  1> ! PBEh-3c def2/J TightSCF DefGrid3
|  2> 
|  3> %maxcore 60000
|  4> 
|  5> %pal
|  6> nprocs 4
|  7> end
|  8> 
|  9> *xyzfile 0 1 2O_B.xyz
| 10> 
| 11>                          ****END OF INPUT****
================================================================================

                       ****************************
                       * Single Point Calculation *
                       ****************************

---------------------------------
CARTESIAN COORDINATES (ANGSTROEM)
---------------------------------
  C     -0.781276    0.151728   -0.741982
  Cl     0.132257   -0.003753   -2.165168
  C      0.053509    0.016127    0.460191
  H      1.140159    0.005318    0.354022
  H     -0.267176    0.764920    1.189482
  H     -0.277473   -0.934340    0.903455

----------------------------
CARTESIAN COORDINATES (A.U.)
----------------------------
  NO LB      ZA    FRAG     MASS         X           Y           Z
   0 C     6.0000    0    12.011   -1.476398    0.286725   -1.402144
   1 Cl   17.0000    0    35.453    0.249929   -0.007093   -4.091574
   2 C     6.0000    0    12.011    0.101117    0.030476    0.869634
   3 H     1.0000    0     1.008    2.154587    0.010049    0.669005
   4 H     1.0000    0     1.008   -0.504889    1.445490    2.247795
   5 H     1.0000    0     1.008   -0.524347   -1.765647    1.707283

--------------------------------
INTERNAL COORDINATES (ANGSTROEM)
--------------------------------
 C      0   0   0     0.000000000000     0.00000000     0.00000000
 Cl     1   0   0     1.698285475879     0.00000000     0.00000000
 C      1   2   0     1.469855061734   111.80511833     0.00000000
 H      3   1   2     1.091877271758   119.11762664    10.12732909
 H      3   1   2     1.093341254847   108.40863660   138.73282552
 H      3   1   2     1.099736743415   103.79592956   248.39746315

---------------------------
INTERNAL COORDINATES (A.U.)
---------------------------
 C      0   0   0     0.000000000000     0.00000000     0.00000000
 Cl     1   0   0     3.209294446627     0.00000000     0.00000000
 C      1   2   0     2.777623523236   111.80511833     0.00000000
 H      3   1   2     2.063349015476   119.11762664    10.12732909
 H      3   1   2     2.066115542578   108.40863660   138.73282552
 H      3   1   2     2.078201264465   103.79592956   248.39746315

---------------------
BASIS SET INFORMATION
---------------------
There are 3 groups of distinct atoms

 Group   1 Type C   : 8s4p1d contracted to 4s2p1d pattern {5111/31/1}
 Group   2 Type Cl  : 10s7p1d contracted to 4s3p1d pattern {5311/511/1}
 Group   3 Type H   : 4s contracted to 2s pattern {31}

Atom   0C    basis set group =>   1
Atom   1Cl   basis set group =>   2
Atom   2C    basis set group =>   1
Atom   3H    basis set group =>   3
Atom   4H    basis set group =>   3
Atom   5H    basis set group =>   3
---------------------------------
AUXILIARY/J BASIS SET INFORMATION
---------------------------------
There are 3 groups of distinct atoms

 Group   1 Type C   : 12s5p4d2f1g contracted to 6s4p3d1f1g pattern {711111/2111/211/2/1}
 Group   2 Type Cl  : 14s5p5d2f1g contracted to 8s4p3d1f1g pattern {71111111/2111/311/2/1}
 Group   3 Type H   : 5s2p1d contracted to 3s1p1d pattern {311/2/1}

Atom   0C    basis set group =>   1
Atom   1Cl   basis set group =>   2
Atom   2C    basis set group =>   1
Atom   3H    basis set group =>   3
Atom   4H    basis set group =>   3
Atom   5H    basis set group =>   3


           ************************************************************
           *        Program running with 4 parallel MPI-processes     *
           *              working on a common directory               *
           ************************************************************
------------------------------------------------------------------------------
                           ORCA GTO INTEGRAL CALCULATION
                           -- RI-GTO INTEGRALS CHOSEN --
------------------------------------------------------------------------------
------------------------------------------------------------------------------
                   ___                                                        
                  /   \      - P O W E R E D   B Y -                         
                 /     \                                                     
                 |  |  |   _    _      __       _____    __    __             
                 |  |  |  | |  | |    /  \     |  _  \  |  |  /  |          
                  \  \/   | |  | |   /    \    | | | |  |  | /  /          
                 / \  \   | |__| |  /  /\  \   | |_| |  |  |/  /          
                |  |  |   |  __  | /  /__\  \  |    /   |      \           
                |  |  |   | |  | | |   __   |  |    \   |  |\   \          
                \     /   | |  | | |  |  |  |  | |\  \  |  | \   \       
                 \___/    |_|  |_| |__|  |__|  |_| \__\ |__|  \__/        
                                                                              
                      - O R C A' S   B I G   F R I E N D -                    
                                      &                                       
                       - I N T E G R A L  F E E D E R -                       
                                                                              
 v1 FN, 2020, v2 2021                                                         
------------------------------------------------------------------------------


Reading SHARK input file pbeh-3c.SHARKINP.tmp ... ok
----------------------
SHARK INTEGRAL PACKAGE
----------------------

Number of atoms                             ...      6
Number of basis functions                   ...     54
Number of shells                            ...     28
Maximum angular momentum                    ...      2
Integral batch strategy                     ... SHARK/LIBINT Hybrid
RI-J (if used) integral strategy            ... SPLIT-RIJ (Revised 2003 algorithm where possible)
Printlevel                                  ...      1
Contraction scheme used                     ... SEGMENTED contraction
Coulomb Range Separation                    ... NOT USED
Exchange Range Separation                   ... NOT USED
Finite Nucleus Model                        ... NOT USED
Auxiliary Coulomb fitting basis             ... AVAILABLE
   # of basis functions in Aux-J            ...    182
   # of shells in Aux-J                     ...     62
   Maximum angular momentum in Aux-J        ...      4
Auxiliary J/K fitting basis                 ... NOT available
Auxiliary Correlation fitting basis         ... NOT available
Auxiliary 'external' fitting basis          ... NOT available
Integral threshold                          ...     2.500000e-11
Primitive cut-off                           ...     2.500000e-12
Primitive pair pre-selection threshold      ...     2.500000e-12

Calculating pre-screening integrals         ... done (  0.1 sec) Dimension = 28
Organizing shell pair data                  ... done (  0.0 sec)
Shell pair information
Total number of shell pairs                 ...       406
Shell pairs after pre-screening             ...       396
Total number of primitive shell pairs       ...      1654
Primitive shell pairs kept                  ...      1294
          la=0 lb=0:    163 shell pairs
          la=1 lb=0:    124 shell pairs
          la=1 lb=1:     28 shell pairs
          la=2 lb=0:     54 shell pairs
          la=2 lb=1:     21 shell pairs
          la=2 lb=2:      6 shell pairs

Calculating one electron integrals          ... done (  0.0 sec)
Calculating RI/J V-Matrix + Cholesky decomp.... done (  0.3 sec)
Calculating Nuclear repulsion               ... done (  0.1 sec) ENN=     88.094515721341 Eh

SHARK setup successfully completed in   0.8 seconds

Maximum memory used throughout the entire GTOINT-calculation: 9.1 MB


           ************************************************************
           *        Program running with 4 parallel MPI-processes     *
           *              working on a common directory               *
           ************************************************************
-------------------------------------------------------------------------------
                                 ORCA SCF
-------------------------------------------------------------------------------

------------
SCF SETTINGS
------------
Hamiltonian:
 Density Functional     Method          .... DFT(GTOs)
 Exchange Functional    Exchange        .... PBE
   PBE kappa parameter   XKappa         ....  1.024500
   PBE mue parameter    XMuePBE         ....  0.123457
 Correlation Functional Correlation     .... PBE
   PBE beta parameter  CBetaPBE         ....  0.030000
 LDA part of GGA corr.  LDAOpt          .... PW91-LDA
 Gradients option       PostSCFGGA      .... off
 Hybrid DFT is turned on
   Fraction HF Exchange ScalHFX         ....  0.420000
   Scaling of DF-GGA-X  ScalDFX         ....  0.580000
   Scaling of DF-GGA-C  ScalDFC         ....  1.000000
   Scaling of DF-LDA-C  ScalLDAC        ....  1.000000
   Perturbative correction              ....  0.000000
   Density functional embedding theory  .... OFF
 RI-approximation to the Coulomb term is turned on
   Number of AuxJ basis functions       .... 182
   RIJ-ON(X) (HFX calculated with O(N)) .... on
   Number of AuxJ basis functions       .... 182
   RIJ-COSX (HFX calculated with COS-X)).... on


General Settings:
 Integral files         IntName         .... pbeh-3c
 Hartree-Fock type      HFTyp           .... RHF
 Total Charge           Charge          ....    0
 Multiplicity           Mult            ....    1
 Number of Electrons    NEL             ....   32
 Basis Dimension        Dim             ....   54
 Nuclear Repulsion      ENuc            ....     88.0945157213 Eh

Convergence Acceleration:
 DIIS                   CNVDIIS         .... on
   Start iteration      DIISMaxIt       ....    12
   Startup error        DIISStart       ....  0.200000
   # of expansion vecs  DIISMaxEq       ....     5
   Bias factor          DIISBfac        ....   1.050
   Max. coefficient     DIISMaxC        ....  10.000
 Trust-Rad. Augm. Hess. CNVTRAH         .... auto
   Auto Start mean grad. ratio tolernc. ....  1.125000
   Auto Start start iteration           ....    20
   Auto Start num. interpolation iter.  ....    10
   Max. Number of Micro iterations      ....    16
   Max. Number of Macro iterations      .... Maxiter - #DIIS iter
   Number of Davidson start vectors     ....     2
   Converg. threshold I  (grad. norm)   ....   1.000e-05
   Converg. threshold II (energy diff.) ....   1.000e-08
   Grad. Scal. Fac. for Micro threshold ....   0.100
   Minimum threshold for Micro iter.    ....   0.010
   NR start threshold (gradient norm)   ....   0.001
   Initial trust radius                 ....   0.400
   Minimum AH scaling param. (alpha)    ....   1.000
   Maximum AH scaling param. (alpha)    .... 1000.000
   Orbital update algorithm             .... Taylor
   White noise on init. David. guess    .... on
   Maximum white noise                  ....   0.010
   Quad. conv. algorithm                .... NR
   COSX micro iterations for RIJONX calc.... off
 SOSCF                  CNVSOSCF        .... on
   Start iteration      SOSCFMaxIt      ....   150
   Startup grad/error   SOSCFStart      ....  0.003300
 Level Shifting         CNVShift        .... on
   Level shift para.    LevelShift      ....    0.2500
   Turn off err/grad.   ShiftErr        ....    0.0010
 Zerner damping         CNVZerner       .... off
 Static damping         CNVDamp         .... on
   Fraction old density DampFac         ....    0.7000
   Max. Damping (<1)    DampMax         ....    0.9800
   Min. Damping (>=0)   DampMin         ....    0.0000
   Turn off err/grad.   DampErr         ....    0.1000
 Fernandez-Rico         CNVRico         .... off

SCF Procedure:
 Maximum # iterations   MaxIter         ....   125
 SCF integral mode      SCFMode         .... Direct
   Integral package                     .... SHARK and LIBINT hybrid scheme
 Reset frequency        DirectResetFreq ....    20
 Integral Threshold     Thresh          ....  2.500e-11 Eh
 Primitive CutOff       TCut            ....  2.500e-12 Eh

Convergence Tolerance:
 Convergence Check Mode ConvCheckMode   .... Total+1el-Energy
 Convergence forced     ConvForced      .... 0
 Energy Change          TolE            ....  1.000e-08 Eh
 1-El. energy change                    ....  1.000e-05 Eh
 Orbital Gradient       TolG            ....  1.000e-05
 Orbital Rotation angle TolX            ....  1.000e-05
 DIIS Error             TolErr          ....  5.000e-07


Diagonalization of the overlap matrix:
Smallest eigenvalue                        ... 9.821e-03
Time for diagonalization                   ...    0.001 sec
Threshold for overlap eigenvalues          ... 1.000e-08
Number of eigenvalues below threshold      ... 0
Time for construction of square roots      ...    0.008 sec
Total time needed                          ...    0.009 sec

--------------------------------
INITIAL GUESS: MINIMAL BASIS EHT
--------------------------------
The minimal basis has 22 functions
EHT matrix was diagonalized
Basis set overlap was calculated now projecting the orbitals
Using GuessMode=FMatrix for the initial guess
C*T matrix was formed
Effective Fockian was calculated
Effective Fockian was diagonalized
Initial density was built
                      ------------------
                      INITIAL GUESS DONE
                      ------------------
-------------------
DFT GRID GENERATION
-------------------

General Integration Accuracy     IntAcc      ... 4.959
Radial Grid Type                 RadialGrid  ... OptM3 with GC (2021)
Angular Grid (max. ang.)         AngularGrid ... 6 (Lebedev-590)
Angular grid pruning method      GridPruning ... 4 (adaptive)
Weight generation scheme         WeightScheme... Becke
Basis function cutoff            BFCut       ... 1.0000e-11
Integration weight cutoff        WCut        ... 1.0000e-14
Angular grids for H and He will be reduced by one unit
Partially contracted basis set               ... off
Rotationally invariant grid construction     ... off

Total number of grid points                  ...    72023
Total number of batches                      ...     1129
Average number of points per batch           ...       63
Average number of grid points per atom       ...    12004
Time for grid setup =    1.446 sec

--------------------
COSX GRID GENERATION
--------------------

GRIDX 1
-------
General Integration Accuracy     IntAcc      ... 4.020
Radial Grid Type                 RadialGrid  ... OptM3 with GC (2021)
Angular Grid (max. ang.)         AngularGrid ... 2 (Lebedev-110)
Angular grid pruning method      GridPruning ... 4 (adaptive)
Weight generation scheme         WeightScheme... Becke
Basis function cutoff            BFCut       ... 1.0000e-11
Integration weight cutoff        WCut        ... 1.0000e-14
Angular grids for H and He will be reduced by one unit
Partially contracted basis set               ... on
Rotationally invariant grid construction     ... off

Total number of grid points                  ...     8065
Total number of batches                      ...      129
Average number of points per batch           ...       62
Average number of grid points per atom       ...     1344
UseSFitting                                  ... on

GRIDX 2
-------
General Integration Accuracy     IntAcc      ... 4.338
Radial Grid Type                 RadialGrid  ... OptM3 with GC (2021)
Angular Grid (max. ang.)         AngularGrid ... 3 (Lebedev-194)
Angular grid pruning method      GridPruning ... 4 (adaptive)
Weight generation scheme         WeightScheme... Becke
Basis function cutoff            BFCut       ... 1.0000e-11
Integration weight cutoff        WCut        ... 1.0000e-14
Angular grids for H and He will be reduced by one unit
Partially contracted basis set               ... on
Rotationally invariant grid construction     ... off

Total number of grid points                  ...    18412
Total number of batches                      ...      289
Average number of points per batch           ...       63
Average number of grid points per atom       ...     3069
UseSFitting                                  ... on

GRIDX 3
-------
General Integration Accuracy     IntAcc      ... 4.871
Radial Grid Type                 RadialGrid  ... OptM3 with GC (2021)
Angular Grid (max. ang.)         AngularGrid ... 4 (Lebedev-302)
Angular grid pruning method      GridPruning ... 4 (adaptive)
Weight generation scheme         WeightScheme... Becke
Basis function cutoff            BFCut       ... 1.0000e-11
Integration weight cutoff        WCut        ... 1.0000e-14
Angular grids for H and He will be reduced by one unit
Partially contracted basis set               ... on
Rotationally invariant grid construction     ... off

Total number of grid points                  ...    35071
Total number of batches                      ...      551
Average number of points per batch           ...       63
Average number of grid points per atom       ...     5845
UseSFitting                                  ... on

Time for X-Grid setup             =    0.993 sec

--------------
SCF ITERATIONS
--------------
ITER       Energy         Delta-E        Max-DP      RMS-DP      [F,P]     Damp
               ***  Starting incremental Fock matrix formation  ***
  0   -536.9742106245   0.000000000000 0.16686343  0.00716701  0.4088982 0.7000
  1   -537.1106952820  -0.136484657478 0.12426788  0.00522457  0.2913957 0.7000
  2   -537.2030198125  -0.092324530525 0.09080925  0.00374304  0.2067755 0.7000
                               ***Turning on DIIS***
  3   -537.2670302602  -0.064010447741 0.06679665  0.00272291  0.1464195 0.7000
  4   -537.3121639207  -0.045133660463 0.05350645  0.00212701  0.1034458 0.7000
  5   -537.3441437765  -0.031979855822 0.13945761  0.00558537  0.0724810 0.0000
  6   -537.4207394450  -0.076595668465 0.01529198  0.00057901  0.0051521 0.0000
                      *** Initiating the SOSCF procedure ***
                           *** Shutting down DIIS ***
                      *** Re-Reading the Fockian *** 
                      *** Removing any level shift *** 
ITER      Energy       Delta-E        Grad      Rot      Max-DP    RMS-DP
  7   -537.42087254  -0.0001330982  0.001298  0.001298  0.007459  0.000307
               *** Restarting incremental Fock matrix formation ***
  8   -537.42089875  -0.0000262113  0.000896  0.002558  0.007946  0.000268
  9   -537.42090808  -0.0000093240  0.000463  0.000856  0.003615  0.000156
 10   -537.42091114  -0.0000030605  0.000165  0.000268  0.001380  0.000051
 11   -537.42091151  -0.0000003710  0.000030  0.000085  0.000132  0.000007
 12   -537.42091152  -0.0000000149  0.000018  0.000047  0.000074  0.000004
 13   -537.42091153  -0.0000000079  0.000006  0.000040  0.000025  0.000002
                  ***Gradient check signals convergence***
              ***Rediagonalizing the Fockian in SOSCF/NRSCF***

               *****************************************************
               *                     SUCCESS                       *
               *           SCF CONVERGED AFTER  14 CYCLES          *
               *****************************************************

Old exchange energy                            =    -16.334419285 Eh
New exchange energy                            =    -16.334420750 Eh
Exchange energy change after final integration =     -0.000001465 Eh
Total energy after final integration           =   -537.420912998 Eh
Final COS-X integration done in                =     0.475 sec

----------------
TOTAL SCF ENERGY
----------------

Total Energy       :         -537.42091300 Eh          -14623.96651 eV

Components:
Nuclear Repulsion  :           88.09451572 Eh            2397.17364 eV
Electronic Energy  :         -625.51542872 Eh          -17021.14015 eV
One Electron Energy:         -913.59368401 Eh          -24860.14801 eV
Two Electron Energy:          288.07825529 Eh            7839.00785 eV
Max COSX asymmetry :            0.00000122 Eh               0.00003 eV

Virial components:
Potential Energy   :        -1073.78374073 Eh          -29219.14106 eV
Kinetic Energy     :          536.36282773 Eh           14595.17455 eV
Virial Ratio       :            2.00197270


DFT components:
N(Alpha)           :       16.000000112441 electrons
N(Beta)            :       16.000000112441 electrons
N(Total)           :       32.000000224881 electrons
E(X)               :      -21.765016656250 Eh       
E(C)               :       -1.508699821156 Eh       
E(XC)              :      -23.273716477406 Eh       
DFET-embed. en.    :        0.000000000000 Eh       

---------------
SCF CONVERGENCE
---------------

  Last Energy change         ...   -4.1814e-10  Tolerance :   1.0000e-08
  Last MAX-Density change    ...    3.5527e-15  Tolerance :   1.0000e-07
  Last RMS-Density change    ...    1.0458e-16  Tolerance :   5.0000e-09
  Last Orbital Gradient      ...    2.2498e-06  Tolerance :   1.0000e-05
  Last Orbital Rotation      ...    2.2992e-05  Tolerance :   1.0000e-05

             **** THE GBW FILE WAS UPDATED (pbeh-3c.gbw) ****
             **** DENSITY pbeh-3c.scfp WAS UPDATED ****
             **** ENERGY FILE WAS UPDATED (pbeh-3c.en.tmp) ****
             **** THE GBW FILE WAS UPDATED (pbeh-3c.gbw) ****
             **** DENSITY pbeh-3c.scfp WAS UPDATED ****
----------------
ORBITAL ENERGIES
----------------

  NO   OCC          E(Eh)            E(eV) 
   0   2.0000    -102.324252     -2784.3845 
   1   2.0000     -10.530627      -286.5529 
   2   2.0000     -10.456438      -284.5341 
   3   2.0000      -9.792753      -266.4744 
   4   2.0000      -7.478862      -203.5102 
   5   2.0000      -7.474370      -203.3879 
   6   2.0000      -7.470879      -203.2929 
   7   2.0000      -0.987249       -26.8644 
   8   2.0000      -0.846436       -23.0327 
   9   2.0000      -0.636033       -17.3073 
  10   2.0000      -0.519426       -14.1343 
  11   2.0000      -0.499942       -13.6041 
  12   2.0000      -0.479463       -13.0469 
  13   2.0000      -0.410057       -11.1582 
  14   2.0000      -0.390680       -10.6309 
  15   2.0000      -0.268788        -7.3141 
  16   0.0000      -0.059624        -1.6225 
  17   0.0000       0.104366         2.8399 
  18   0.0000       0.157962         4.2984 
  19   0.0000       0.187960         5.1147 
  20   0.0000       0.207725         5.6525 
  21   0.0000       0.263689         7.1754 
  22   0.0000       0.458479        12.4759 
  23   0.0000       0.486235        13.2311 
  24   0.0000       0.504152        13.7187 
  25   0.0000       0.549241        14.9456 
  26   0.0000       0.586229        15.9521 
  27   0.0000       0.593903        16.1609 
  28   0.0000       0.679458        18.4890 
  29   0.0000       0.771915        21.0049 
  30   0.0000       0.796546        21.6751 
  31   0.0000       0.817856        22.2550 
  32   0.0000       0.824863        22.4457 
  33   0.0000       0.851429        23.1685 
  34   0.0000       0.930631        25.3238 
  35   0.0000       0.942476        25.6461 
  36   0.0000       0.969245        26.3745 
  37   0.0000       1.013077        27.5672 
  38   0.0000       1.038033        28.2463 
  39   0.0000       1.055734        28.7280 
  40   0.0000       1.202828        32.7306 
  41   0.0000       1.375416        37.4270 
  42   0.0000       1.486759        40.4568 
  43   0.0000       1.595938        43.4277 
  44   0.0000       1.845979        50.2317 
  45   0.0000       1.990081        54.1529 
  46   0.0000       2.097498        57.0758 
  47   0.0000       2.144674        58.3595 
  48   0.0000       2.220533        60.4238 
  49   0.0000       2.340760        63.6953 
  50   0.0000       2.488932        67.7273 
  51   0.0000       2.624018        71.4032 
  52   0.0000      13.430331       365.4579 
  53   0.0000      13.885594       377.8462 

                    ********************************
                    * MULLIKEN POPULATION ANALYSIS *
                    ********************************

-----------------------
MULLIKEN ATOMIC CHARGES
-----------------------
   0 C :    0.004034
   1 Cl:   -0.049058
   2 C :   -0.734495
   3 H :    0.236446
   4 H :    0.270513
   5 H :    0.272560
Sum of atomic charges:    0.0000000

--------------------------------
MULLIKEN REDUCED ORBITAL CHARGES
--------------------------------
  0 C s       :     3.657037  s :     3.657037
      pz      :     0.682999  p :     2.292256
      px      :     1.290658
      py      :     0.318599
      dz2     :     0.007627  d :     0.046673
      dxz     :     0.021472
      dyz     :     0.007299
      dx2y2   :     0.005920
      dxy     :     0.004356
  1 Cls       :     5.939982  s :     5.939982
      pz      :     3.512797  p :    11.063330
      px      :     3.781929
      py      :     3.768604
      dz2     :     0.015409  d :     0.045746
      dxz     :     0.019285
      dyz     :     0.004866
      dx2y2   :     0.004535
      dxy     :     0.001651
  2 C s       :     3.397240  s :     3.397240
      pz      :     1.017843  p :     3.301341
      px      :     1.135620
      py      :     1.147879
      dz2     :     0.007336  d :     0.035914
      dxz     :     0.008065
      dyz     :     0.005958
      dx2y2   :     0.010628
      dxy     :     0.003927
  3 H s       :     0.763554  s :     0.763554
  4 H s       :     0.729487  s :     0.729487
  5 H s       :     0.727440  s :     0.727440


                     *******************************
                     * LOEWDIN POPULATION ANALYSIS *
                     *******************************

----------------------
LOEWDIN ATOMIC CHARGES
----------------------
   0 C :   -0.184646
   1 Cl:    0.146038
   2 C :   -0.431381
   3 H :    0.123181
   4 H :    0.166051
   5 H :    0.180758

-------------------------------
LOEWDIN REDUCED ORBITAL CHARGES
-------------------------------
  0 C s       :     3.354958  s :     3.354958
      pz      :     0.923178  p :     2.739304
      px      :     1.437772
      py      :     0.378354
      dz2     :     0.020394  d :     0.090384
      dxz     :     0.041739
      dyz     :     0.014022
      dx2y2   :     0.008019
      dxy     :     0.006210
  1 Cls       :     5.774848  s :     5.774848
      pz      :     3.517996  p :    11.025549
      px      :     3.775761
      py      :     3.731792
      dz2     :     0.017329  d :     0.053566
      dxz     :     0.024714
      dyz     :     0.004219
      dx2y2   :     0.005766
      dxy     :     0.001538
  2 C s       :     2.974935  s :     2.974935
      pz      :     1.121435  p :     3.387093
      px      :     1.137536
      py      :     1.128122
      dz2     :     0.015633  d :     0.069354
      dxz     :     0.017949
      dyz     :     0.010840
      dx2y2   :     0.019592
      dxy     :     0.005340
  3 H s       :     0.876819  s :     0.876819
  4 H s       :     0.833949  s :     0.833949
  5 H s       :     0.819242  s :     0.819242


                      *****************************
                      * MAYER POPULATION ANALYSIS *
                      *****************************

  NA   - Mulliken gross atomic population
  ZA   - Total nuclear charge
  QA   - Mulliken gross atomic charge
  VA   - Mayer's total valence
  BVA  - Mayer's bonded valence
  FA   - Mayer's free valence

  ATOM       NA         ZA         QA         VA         BVA        FA
  0 C      5.9960     6.0000     0.0040     2.3412     2.3412    -0.0000
  1 Cl    17.0491    17.0000    -0.0491     1.3176     1.3176     0.0000
  2 C      6.7345     6.0000    -0.7345     3.6969     3.6969     0.0000
  3 H      0.7636     1.0000     0.2364     0.9067     0.9067     0.0000
  4 H      0.7295     1.0000     0.2705     0.8900     0.8900     0.0000
  5 H      0.7274     1.0000     0.2726     0.8910     0.8910     0.0000

  Mayer bond orders larger than 0.100000
B(  0-C ,  1-Cl) :   1.2614 B(  0-C ,  2-C ) :   1.0451 B(  2-C ,  3-H ) :   0.8947 
B(  2-C ,  4-H ) :   0.8838 B(  2-C ,  5-H ) :   0.8674 

-------
TIMINGS
-------

Total SCF time: 0 days 0 hours 0 min 14 sec 

Total time                  ....      14.885 sec
Sum of individual times     ....      13.859 sec  ( 93.1%)

Fock matrix formation       ....      10.318 sec  ( 69.3%)
  Split-RI-J                ....       0.742 sec  (  7.2% of F)
  Chain of spheres X        ....       3.754 sec  ( 36.4% of F)
  XC integration            ....       3.984 sec  ( 38.6% of F)
    Basis function eval.    ....       0.701 sec  ( 17.6% of XC)
    Density eval.           ....       0.440 sec  ( 11.0% of XC)
    XC-Functional eval.     ....       0.559 sec  ( 14.0% of XC)
    XC-Potential eval.      ....       0.195 sec  (  4.9% of XC)
Diagonalization             ....       0.056 sec  (  0.4%)
Density matrix formation    ....       0.002 sec  (  0.0%)
Population analysis         ....       0.536 sec  (  3.6%)
Initial guess               ....       0.003 sec  (  0.0%)
Orbital Transformation      ....       0.000 sec  (  0.0%)
Orbital Orthonormalization  ....       0.000 sec  (  0.0%)
DIIS solution               ....       0.034 sec  (  0.2%)
SOSCF solution              ....       0.471 sec  (  3.2%)
Grid generation             ....       2.439 sec  ( 16.4%)

Maximum memory used throughout the entire SCF-calculation: 45.7 MB


-------------------------------------------------------------------------------
                          DFT DISPERSION CORRECTION                            
                                                                               
                              DFTD3 V3.1  Rev 1                                
                          USING Becke-Johnson damping                          
-------------------------------------------------------------------------------
The PBEh-3c composite method is recognized
Using three-body term ABC
Active option DFTDOPT                   ...         4   

molecular C6(AA) [au] = 598.216831 


            DFT-D V3
 parameters
 s6 scaling factor         :     1.0000 
 a1 scaling factor         :     0.4860 
 s8 scaling factor         :     0.0000 
 a2 scaling factor         :     4.5000 
 Damping factor alpha9(ATM):    16.0000 
 ad hoc parameters k1-k3   :    16.0000     1.3333    -4.0000 

 Edisp/kcal,au: -1.152248168614  -0.001836224142 
 E6   /kcal   :  -1.152513564 
 E8   /kcal   :  -0.000000000 
 E6(ABC)      :   0.000265395 
 % E8         :   0.000000000 
 % E6(ABC)    :  -0.023032826 

-------------------------   ----------------
Dispersion correction           -0.001836224
-------------------------   ----------------

------------------   -----------------
gCP correction             0.005764995
------------------   -----------------

-------------------------   --------------------
FINAL SINGLE POINT ENERGY      -537.416984227815
-------------------------   --------------------


                            ***************************************
                            *     ORCA property calculations      *
                            ***************************************

                                    ---------------------
                                    Active property flags
                                    ---------------------
   (+) Dipole Moment


------------------------------------------------------------------------------
                       ORCA ELECTRIC PROPERTIES CALCULATION
------------------------------------------------------------------------------

Dipole Moment Calculation                       ... on
Quadrupole Moment Calculation                   ... off
Polarizability Calculation                      ... off
GBWName                                         ... pbeh-3c.gbw
Electron density                                ... pbeh-3c.scfp
The origin for moment calculation is the CENTER OF MASS  = (-0.104376,  0.051935 -2.348733)

-------------
DIPOLE MOMENT
-------------
                                X             Y             Z
Electronic contribution:      0.16714       0.04622      -6.42251
Nuclear contribution   :      0.46250      -0.18938       7.03173
                        -----------------------------------------
Total Dipole Moment    :      0.62964      -0.14317       0.60921
                        -----------------------------------------
Magnitude (a.u.)       :      0.88774
Magnitude (Debye)      :      2.25646



--------------------
Rotational spectrum 
--------------------
 
Rotational constants in cm-1:     1.654048     0.202021     0.185964 
Rotational constants in MHz : 49587.107749  6056.435207  5575.059010 

 Dipole components along the rotational axes: 
x,y,z [a.u.] :     0.540093    -0.703432     0.039578 
x,y,z [Debye]:     1.372808    -1.787983     0.100599 

 

Timings for individual modules:

Sum of individual times         ...       16.946 sec (=   0.282 min)
GTO integral calculation        ...        1.463 sec (=   0.024 min)   8.6 %
SCF iterations                  ...       15.482 sec (=   0.258 min)  91.4 %
                             ****ORCA TERMINATED NORMALLY****
TOTAL RUN TIME: 0 days 0 hours 0 minutes 17 seconds 857 msec
