
                                 *****************
                                 * O   R   C   A *
                                 *****************

                                            #,                                       
                                            ###                                      
                                            ####                                     
                                            #####                                    
                                            ######                                   
                                           ########,                                 
                                     ,,################,,,,,                         
                               ,,#################################,,                 
                          ,,##########################################,,             
                       ,#########################################, ''#####,          
                    ,#############################################,,   '####,        
                  ,##################################################,,,,####,       
                ,###########''''           ''''###############################       
              ,#####''   ,,,,##########,,,,          '''####'''          '####       
            ,##' ,,,,###########################,,,                        '##       
           ' ,,###''''                  '''############,,,                           
         ,,##''                                '''############,,,,        ,,,,,,###''
      ,#''                                            '''#######################'''  
     '                                                          ''''####''''         
             ,#######,   #######,   ,#######,      ##                                
            ,#'     '#,  ##    ##  ,#'     '#,    #''#        ######   ,####,        
            ##       ##  ##   ,#'  ##            #'  '#       #        #'  '#        
            ##       ##  #######   ##           ,######,      #####,   #    #        
            '#,     ,#'  ##    ##  '#,     ,#' ,#      #,         ##   #,  ,#        
             '#######'   ##     ##  '#######'  #'      '#     #####' # '####'        



                  #######################################################
                  #                        -***-                        #
                  #          Department of theory and spectroscopy      #
                  #    Directorship and core code : Frank Neese         #
                  #        Max Planck Institute fuer Kohlenforschung    #
                  #                Kaiser Wilhelm Platz 1               #
                  #                 D-45470 Muelheim/Ruhr               #
                  #                      Germany                        #
                  #                                                     #
                  #                  All rights reserved                #
                  #                        -***-                        #
                  #######################################################


                         Program Version 5.0.3 -  RELEASE  -


 With contributions from (in alphabetic order):
   Daniel Aravena         : Magnetic Suceptibility
   Michael Atanasov       : Ab Initio Ligand Field Theory (pilot matlab implementation)
   Alexander A. Auer      : GIAO ZORA, VPT2 properties, NMR spectrum
   Ute Becker             : Parallelization
   Giovanni Bistoni       : ED, misc. LED, open-shell LED, HFLD
   Martin Brehm           : Molecular dynamics
   Dmytro Bykov           : SCF Hessian
   Vijay G. Chilkuri      : MRCI spin determinant printing, contributions to CSF-ICE
   Dipayan Datta          : RHF DLPNO-CCSD density
   Achintya Kumar Dutta   : EOM-CC, STEOM-CC
   Dmitry Ganyushin       : Spin-Orbit,Spin-Spin,Magnetic field MRCI
   Miquel Garcia          : C-PCM and meta-GGA Hessian, CC/C-PCM, Gaussian charge scheme
   Yang Guo               : DLPNO-NEVPT2, F12-NEVPT2, CIM, IAO-localization
   Andreas Hansen         : Spin unrestricted coupled pair/coupled cluster methods
   Benjamin Helmich-Paris : MC-RPA, TRAH-SCF, COSX integrals
   Lee Huntington         : MR-EOM, pCC
   Robert Izsak           : Overlap fitted RIJCOSX, COSX-SCS-MP3, EOM
   Marcus Kettner         : VPT2
   Christian Kollmar      : KDIIS, OOCD, Brueckner-CCSD(T), CCSD density, CASPT2, CASPT2-K
   Simone Kossmann        : Meta GGA functionals, TD-DFT gradient, OOMP2, MP2 Hessian
   Martin Krupicka        : Initial AUTO-CI
   Lucas Lang             : DCDCAS
   Marvin Lechner         : AUTO-CI (C++ implementation), FIC-MRCC
   Dagmar Lenk            : GEPOL surface, SMD
   Dimitrios Liakos       : Extrapolation schemes; Compound Job, initial MDCI parallelization
   Dimitrios Manganas     : Further ROCIS development; embedding schemes
   Dimitrios Pantazis     : SARC Basis sets
   Anastasios Papadopoulos: AUTO-CI, single reference methods and gradients
   Taras Petrenko         : DFT Hessian,TD-DFT gradient, ASA, ECA, R-Raman, ABS, FL, XAS/XES, NRVS
   Peter Pinski           : DLPNO-MP2, DLPNO-MP2 Gradient
   Christoph Reimann      : Effective Core Potentials
   Marius Retegan         : Local ZFS, SOC
   Christoph Riplinger    : Optimizer, TS searches, QM/MM, DLPNO-CCSD(T), (RO)-DLPNO pert. Triples
   Tobias Risthaus        : Range-separated hybrids, TD-DFT gradient, RPA, STAB
   Michael Roemelt        : Original ROCIS implementation
   Masaaki Saitow         : Open-shell DLPNO-CCSD energy and density
   Barbara Sandhoefer     : DKH picture change effects
   Avijit Sen             : IP-ROCIS
   Kantharuban Sivalingam : CASSCF convergence, NEVPT2, FIC-MRCI
   Bernardo de Souza      : ESD, SOC TD-DFT
   Georgi Stoychev        : AutoAux, RI-MP2 NMR, DLPNO-MP2 response
   Willem Van den Heuvel  : Paramagnetic NMR
   Boris Wezisla          : Elementary symmetry handling
   Frank Wennmohs         : Technical directorship


 We gratefully acknowledge several colleagues who have allowed us to
 interface, adapt or use parts of their codes:
   Stefan Grimme, W. Hujo, H. Kruse, P. Pracht,  : VdW corrections, initial TS optimization,
                  C. Bannwarth, S. Ehlert          DFT functionals, gCP, sTDA/sTD-DF
   Ed Valeev, F. Pavosevic, A. Kumar             : LibInt (2-el integral package), F12 methods
   Garnet Chan, S. Sharma, J. Yang, R. Olivares  : DMRG
   Ulf Ekstrom                                   : XCFun DFT Library
   Mihaly Kallay                                 : mrcc  (arbitrary order and MRCC methods)
   Jiri Pittner, Ondrej Demel                    : Mk-CCSD
   Frank Weinhold                                : gennbo (NPA and NBO analysis)
   Christopher J. Cramer and Donald G. Truhlar   : smd solvation model
   Lars Goerigk                                  : TD-DFT with DH, B97 family of functionals
   V. Asgeirsson, H. Jonsson                     : NEB implementation
   FAccTs GmbH                                   : IRC, NEB, NEB-TS, DLPNO-Multilevel, CI-OPT
                                                   MM, QMMM, 2- and 3-layer-ONIOM, Crystal-QMMM,
                                                   LR-CPCM, SF, NACMEs, symmetry and pop. for TD-DFT,
                                                   nearIR, NL-DFT gradient (VV10), updates on ESD,
                                                   ML-optimized integration grids
   S Lehtola, MJT Oliveira, MAL Marques          : LibXC Library
   Liviu Ungur et al                             : ANISO software


 Your calculation uses the libint2 library for the computation of 2-el integrals
 For citations please refer to: http://libint.valeyev.net

 Your ORCA version has been built with support for libXC version: 5.1.0
 For citations please refer to: https://tddft.org/programs/libxc/

 This ORCA versions uses:
   CBLAS   interface :  Fast vector & matrix operations
   LAPACKE interface :  Fast linear algebra routines
   SCALAPACK package :  Parallel linear algebra routines
   Shared memory     :  Shared parallel matrices
   BLAS/LAPACK       :  OpenBLAS 0.3.15  USE64BITINT DYNAMIC_ARCH NO_AFFINITY Haswell SINGLE_THREADED
        Core in use  :  Haswell
   Copyright (c) 2011-2014, The OpenBLAS Project




***************************************
The coordinates will be read from file: r7.xyz
***************************************


Your calculation utilizes the geometrical counterpoise correction gCP
Please cite in your paper:
H.Kruse, S. Grimme J.Chem.Phys., 136, (2012), 154101 
   

Your calculation utilizes the atom-pairwise dispersion correction
with the Becke-Johnson damping scheme (D3BJ)
Cite in your paper:
S.Grimme, S.Ehrlich, L.Goerigk, J Comput Chem, (2011), 32, 1456–1465 
S.Grimme, J.Antony, S.Ehrlich and H.Krieg, J.Chem.Phys., 132, (2010), 154104 
   

Your calculation employs the composite approach PBEh-3c.
Please cite in your paper:
S. Grimme, J. G. Brandenburg, C. Bannwarth, A. Hansen J.Chem.Phys., 143, (2015), 054107 
   

================================================================================

----- Orbital basis set information -----
Your calculation utilizes the basis: def2-mSVP

----- AuxJ basis set information -----
Your calculation utilizes the auxiliary basis: def2/J
   F. Weigend, Phys. Chem. Chem. Phys. 8, 1057 (2006).

================================================================================
                                        WARNINGS
                       Please study these warnings very carefully!
================================================================================


INFO   : the flag for use of the SHARK integral package has been found!

================================================================================
                                       INPUT FILE
================================================================================
NAME = pbeh-3c.inp
|  1> ! PBEh-3c def2/J TightSCF DefGrid3
|  2> 
|  3> %maxcore 60000
|  4> 
|  5> %pal
|  6> nprocs 4
|  7> end
|  8> 
|  9> *xyzfile 0 1 r7.xyz
| 10> 
| 11>                          ****END OF INPUT****
================================================================================

                       ****************************
                       * Single Point Calculation *
                       ****************************

---------------------------------
CARTESIAN COORDINATES (ANGSTROEM)
---------------------------------
  C     -0.839001   -0.554758    0.124223
  C      0.106422   -1.708008   -0.220893
  C     -0.275509    0.571422   -0.757118
  C      1.247206    0.434256   -0.587253
  C      1.503294   -1.057744   -0.268133
  C     -0.797224   -0.226971    1.612764
  C     -0.800643    1.968192   -0.472224
  H     -1.868062   -0.787099   -0.158743
  H      0.047486   -2.533102    0.489117
  H     -0.151985   -2.101498   -1.205529
  H     -0.524556    0.310999   -1.790612
  H      1.778606    0.768064   -1.477474
  H      1.582397    1.067916    0.235319
  H      2.140019   -1.534779   -1.010674
  H      2.006695   -1.162158    0.691887
  H      0.208194    0.050011    1.932178
  H     -1.103081   -1.093019    2.199613
  H     -1.464471    0.596494    1.863254
  H     -0.527149    2.290482    0.532257
  H     -1.886986    2.011656   -0.558094
  H     -0.381653    2.689645   -1.173867

----------------------------
CARTESIAN COORDINATES (A.U.)
----------------------------
  NO LB      ZA    FRAG     MASS         X           Y           Z
   0 C     6.0000    0    12.011   -1.585482   -1.048340    0.234747
   1 C     6.0000    0    12.011    0.201108   -3.227668   -0.417427
   2 C     6.0000    0    12.011   -0.520637    1.079831   -1.430745
   3 C     6.0000    0    12.011    2.356878    0.820625   -1.109747
   4 C     6.0000    0    12.011    2.840814   -1.998847   -0.506697
   5 C     6.0000    0    12.011   -1.506534   -0.428912    3.047683
   6 C     6.0000    0    12.011   -1.512997    3.719344   -0.892373
   7 H     1.0000    0     1.008   -3.530125   -1.487402   -0.299980
   8 H     1.0000    0     1.008    0.089735   -4.786869    0.924297
   9 H     1.0000    0     1.008   -0.287209   -3.971255   -2.278120
  10 H     1.0000    0     1.008   -0.991267    0.587703   -3.383766
  11 H     1.0000    0     1.008    3.361079    1.451430   -2.792022
  12 H     1.0000    0     1.008    2.990296    2.018068    0.444689
  13 H     1.0000    0     1.008    4.044050   -2.900312   -1.909897
  14 H     1.0000    0     1.008    3.792104   -2.196161    1.307476
  15 H     1.0000    0     1.008    0.393430    0.094506    3.651288
  16 H     1.0000    0     1.008   -2.084521   -2.065506    4.156667
  17 H     1.0000    0     1.008   -2.767449    1.127210    3.521040
  18 H     1.0000    0     1.008   -0.996166    4.328384    1.005819
  19 H     1.0000    0     1.008   -3.565886    3.801478   -1.054645
  20 H     1.0000    0     1.008   -0.721220    5.082693   -2.218287

--------------------------------
INTERNAL COORDINATES (ANGSTROEM)
--------------------------------
 C      0   0   0     0.000000000000     0.00000000     0.00000000
 C      1   0   0     1.530658326033     0.00000000     0.00000000
 C      1   2   0     1.537063454351   101.32134632     0.00000000
 C      3   1   2     1.538288356861   103.54700226   317.22103442
 C      2   1   3     1.541534235301   104.40553902    41.82812334
 C      1   2   3     1.524777315264   111.41718716   239.45619832
 C      3   1   2     1.519176719202   116.06523867   191.78211205
 H      1   2   3     1.092254001668   111.29948755   117.65367602
 H      2   1   3     1.090122245408   112.95558284   164.79092615
 H      2   1   3     1.091382988447   109.19705739   284.43874177
 H      3   1   2     1.094510984957   106.47987299    70.92293232
 H      4   3   1     1.089177742139   111.43035845   150.35108985
 H      4   3   1     1.091101256815   109.60644921   268.29483892
 H      5   2   1     1.088277576669   111.47995185   213.17551696
 H      5   2   1     1.089014287995   110.57388867    94.52661877
 H      6   1   2     1.090692030810   111.45338772    59.05371509
 H      6   1   2     1.089944675902   110.31144876   299.55886061
 H      6   1   2     1.089062912719   111.73403669   179.71105784
 H      7   3   1     1.089793856626   110.97791786    63.28005777
 H      7   3   1     1.090597185018   111.48131405   302.71187455
 H      7   3   1     1.090114843374   110.78888031   182.65128172

---------------------------
INTERNAL COORDINATES (A.U.)
---------------------------
 C      0   0   0     0.000000000000     0.00000000     0.00000000
 C      1   0   0     2.892525040809     0.00000000     0.00000000
 C      1   2   0     2.904628979182   101.32134632     0.00000000
 C      3   1   2     2.906943709467   103.54700226   317.22103442
 C      2   1   3     2.913077530783   104.40553902    41.82812334
 C      1   2   3     2.881411541064   111.41718716   239.45619832
 C      3   1   2     2.870827948321   116.06523867   191.78211205
 H      1   2   3     2.064060931832   111.29948755   117.65367602
 H      2   1   3     2.060032496316   112.95558284   164.79092615
 H      2   1   3     2.062414955386   109.19705739   284.43874177
 H      3   1   2     2.068326012137   106.47987299    70.92293232
 H      4   3   1     2.058247643806   111.43035845   150.35108985
 H      4   3   1     2.061882559757   109.60644921   268.29483892
 H      5   2   1     2.056546577592   111.47995185   213.17551696
 H      5   2   1     2.057938760237   110.57388867    94.52661877
 H      6   1   2     2.061109234681   111.45338772    59.05371509
 H      6   1   2     2.059696938580   110.31144876   299.55886061
 H      6   1   2     2.058030647650   111.73403669   179.71105784
 H      7   3   1     2.059411931452   110.97791786    63.28005777
 H      7   3   1     2.060930002110   111.48131405   302.71187455
 H      7   3   1     2.060018508499   110.78888031   182.65128172

---------------------
BASIS SET INFORMATION
---------------------
There are 2 groups of distinct atoms

 Group   1 Type C   : 8s4p1d contracted to 4s2p1d pattern {5111/31/1}
 Group   2 Type H   : 4s contracted to 2s pattern {31}

Atom   0C    basis set group =>   1
Atom   1C    basis set group =>   1
Atom   2C    basis set group =>   1
Atom   3C    basis set group =>   1
Atom   4C    basis set group =>   1
Atom   5C    basis set group =>   1
Atom   6C    basis set group =>   1
Atom   7H    basis set group =>   2
Atom   8H    basis set group =>   2
Atom   9H    basis set group =>   2
Atom  10H    basis set group =>   2
Atom  11H    basis set group =>   2
Atom  12H    basis set group =>   2
Atom  13H    basis set group =>   2
Atom  14H    basis set group =>   2
Atom  15H    basis set group =>   2
Atom  16H    basis set group =>   2
Atom  17H    basis set group =>   2
Atom  18H    basis set group =>   2
Atom  19H    basis set group =>   2
Atom  20H    basis set group =>   2
---------------------------------
AUXILIARY/J BASIS SET INFORMATION
---------------------------------
There are 2 groups of distinct atoms

 Group   1 Type C   : 12s5p4d2f1g contracted to 6s4p3d1f1g pattern {711111/2111/211/2/1}
 Group   2 Type H   : 5s2p1d contracted to 3s1p1d pattern {311/2/1}

Atom   0C    basis set group =>   1
Atom   1C    basis set group =>   1
Atom   2C    basis set group =>   1
Atom   3C    basis set group =>   1
Atom   4C    basis set group =>   1
Atom   5C    basis set group =>   1
Atom   6C    basis set group =>   1
Atom   7H    basis set group =>   2
Atom   8H    basis set group =>   2
Atom   9H    basis set group =>   2
Atom  10H    basis set group =>   2
Atom  11H    basis set group =>   2
Atom  12H    basis set group =>   2
Atom  13H    basis set group =>   2
Atom  14H    basis set group =>   2
Atom  15H    basis set group =>   2
Atom  16H    basis set group =>   2
Atom  17H    basis set group =>   2
Atom  18H    basis set group =>   2
Atom  19H    basis set group =>   2
Atom  20H    basis set group =>   2


           ************************************************************
           *        Program running with 4 parallel MPI-processes     *
           *              working on a common directory               *
           ************************************************************
------------------------------------------------------------------------------
                           ORCA GTO INTEGRAL CALCULATION
                           -- RI-GTO INTEGRALS CHOSEN --
------------------------------------------------------------------------------
------------------------------------------------------------------------------
                   ___                                                        
                  /   \      - P O W E R E D   B Y -                         
                 /     \                                                     
                 |  |  |   _    _      __       _____    __    __             
                 |  |  |  | |  | |    /  \     |  _  \  |  |  /  |          
                  \  \/   | |  | |   /    \    | | | |  |  | /  /          
                 / \  \   | |__| |  /  /\  \   | |_| |  |  |/  /          
                |  |  |   |  __  | /  /__\  \  |    /   |      \           
                |  |  |   | |  | | |   __   |  |    \   |  |\   \          
                \     /   | |  | | |  |  |  |  | |\  \  |  | \   \       
                 \___/    |_|  |_| |__|  |__|  |_| \__\ |__|  \__/        
                                                                              
                      - O R C A' S   B I G   F R I E N D -                    
                                      &                                       
                       - I N T E G R A L  F E E D E R -                       
                                                                              
 v1 FN, 2020, v2 2021                                                         
------------------------------------------------------------------------------


Reading SHARK input file pbeh-3c.SHARKINP.tmp ... ok
----------------------
SHARK INTEGRAL PACKAGE
----------------------

Number of atoms                             ...     21
Number of basis functions                   ...    133
Number of shells                            ...     77
Maximum angular momentum                    ...      2
Integral batch strategy                     ... SHARK/LIBINT Hybrid
RI-J (if used) integral strategy            ... SPLIT-RIJ (Revised 2003 algorithm where possible)
Printlevel                                  ...      1
Contraction scheme used                     ... SEGMENTED contraction
Coulomb Range Separation                    ... NOT USED
Exchange Range Separation                   ... NOT USED
Finite Nucleus Model                        ... NOT USED
Auxiliary Coulomb fitting basis             ... AVAILABLE
   # of basis functions in Aux-J            ...    497
   # of shells in Aux-J                     ...    175
   Maximum angular momentum in Aux-J        ...      4
Auxiliary J/K fitting basis                 ... NOT available
Auxiliary Correlation fitting basis         ... NOT available
Auxiliary 'external' fitting basis          ... NOT available
Integral threshold                          ...     2.500000e-11
Primitive cut-off                           ...     2.500000e-12
Primitive pair pre-selection threshold      ...     2.500000e-12

Calculating pre-screening integrals         ... done (  0.1 sec) Dimension = 77
Organizing shell pair data                  ... done (  0.2 sec)
Shell pair information
Total number of shell pairs                 ...      3003
Shell pairs after pre-screening             ...      2876
Total number of primitive shell pairs       ...     11011
Primitive shell pairs kept                  ...      7650
          la=0 lb=0:   1477 shell pairs
          la=1 lb=0:    784 shell pairs
          la=1 lb=1:    105 shell pairs
          la=2 lb=0:    384 shell pairs
          la=2 lb=1:     98 shell pairs
          la=2 lb=2:     28 shell pairs

Calculating one electron integrals          ... done (  0.1 sec)
Calculating RI/J V-Matrix + Cholesky decomp.... done (  0.1 sec)
Calculating Nuclear repulsion               ... done (  0.0 sec) ENN=    333.645462909177 Eh

SHARK setup successfully completed in   1.4 seconds

Maximum memory used throughout the entire GTOINT-calculation: 11.5 MB


           ************************************************************
           *        Program running with 4 parallel MPI-processes     *
           *              working on a common directory               *
           ************************************************************
-------------------------------------------------------------------------------
                                 ORCA SCF
-------------------------------------------------------------------------------

------------
SCF SETTINGS
------------
Hamiltonian:
 Density Functional     Method          .... DFT(GTOs)
 Exchange Functional    Exchange        .... PBE
   PBE kappa parameter   XKappa         ....  1.024500
   PBE mue parameter    XMuePBE         ....  0.123457
 Correlation Functional Correlation     .... PBE
   PBE beta parameter  CBetaPBE         ....  0.030000
 LDA part of GGA corr.  LDAOpt          .... PW91-LDA
 Gradients option       PostSCFGGA      .... off
 Hybrid DFT is turned on
   Fraction HF Exchange ScalHFX         ....  0.420000
   Scaling of DF-GGA-X  ScalDFX         ....  0.580000
   Scaling of DF-GGA-C  ScalDFC         ....  1.000000
   Scaling of DF-LDA-C  ScalLDAC        ....  1.000000
   Perturbative correction              ....  0.000000
   Density functional embedding theory  .... OFF
 RI-approximation to the Coulomb term is turned on
   Number of AuxJ basis functions       .... 497
   RIJ-ON(X) (HFX calculated with O(N)) .... on
   Number of AuxJ basis functions       .... 497
   RIJ-COSX (HFX calculated with COS-X)).... on


General Settings:
 Integral files         IntName         .... pbeh-3c
 Hartree-Fock type      HFTyp           .... RHF
 Total Charge           Charge          ....    0
 Multiplicity           Mult            ....    1
 Number of Electrons    NEL             ....   56
 Basis Dimension        Dim             ....  133
 Nuclear Repulsion      ENuc            ....    333.6454629092 Eh

Convergence Acceleration:
 DIIS                   CNVDIIS         .... on
   Start iteration      DIISMaxIt       ....    12
   Startup error        DIISStart       ....  0.200000
   # of expansion vecs  DIISMaxEq       ....     5
   Bias factor          DIISBfac        ....   1.050
   Max. coefficient     DIISMaxC        ....  10.000
 Trust-Rad. Augm. Hess. CNVTRAH         .... auto
   Auto Start mean grad. ratio tolernc. ....  1.125000
   Auto Start start iteration           ....    20
   Auto Start num. interpolation iter.  ....    10
   Max. Number of Micro iterations      ....    16
   Max. Number of Macro iterations      .... Maxiter - #DIIS iter
   Number of Davidson start vectors     ....     2
   Converg. threshold I  (grad. norm)   ....   1.000e-05
   Converg. threshold II (energy diff.) ....   1.000e-08
   Grad. Scal. Fac. for Micro threshold ....   0.100
   Minimum threshold for Micro iter.    ....   0.010
   NR start threshold (gradient norm)   ....   0.001
   Initial trust radius                 ....   0.400
   Minimum AH scaling param. (alpha)    ....   1.000
   Maximum AH scaling param. (alpha)    .... 1000.000
   Orbital update algorithm             .... Taylor
   White noise on init. David. guess    .... on
   Maximum white noise                  ....   0.010
   Quad. conv. algorithm                .... NR
   COSX micro iterations for RIJONX calc.... off
 SOSCF                  CNVSOSCF        .... on
   Start iteration      SOSCFMaxIt      ....   150
   Startup grad/error   SOSCFStart      ....  0.003300
 Level Shifting         CNVShift        .... on
   Level shift para.    LevelShift      ....    0.2500
   Turn off err/grad.   ShiftErr        ....    0.0010
 Zerner damping         CNVZerner       .... off
 Static damping         CNVDamp         .... on
   Fraction old density DampFac         ....    0.7000
   Max. Damping (<1)    DampMax         ....    0.9800
   Min. Damping (>=0)   DampMin         ....    0.0000
   Turn off err/grad.   DampErr         ....    0.1000
 Fernandez-Rico         CNVRico         .... off

SCF Procedure:
 Maximum # iterations   MaxIter         ....   125
 SCF integral mode      SCFMode         .... Direct
   Integral package                     .... SHARK and LIBINT hybrid scheme
 Reset frequency        DirectResetFreq ....    20
 Integral Threshold     Thresh          ....  2.500e-11 Eh
 Primitive CutOff       TCut            ....  2.500e-12 Eh

Convergence Tolerance:
 Convergence Check Mode ConvCheckMode   .... Total+1el-Energy
 Convergence forced     ConvForced      .... 0
 Energy Change          TolE            ....  1.000e-08 Eh
 1-El. energy change                    ....  1.000e-05 Eh
 Orbital Gradient       TolG            ....  1.000e-05
 Orbital Rotation angle TolX            ....  1.000e-05
 DIIS Error             TolErr          ....  5.000e-07


Diagonalization of the overlap matrix:
Smallest eigenvalue                        ... 4.447e-03
Time for diagonalization                   ...    0.003 sec
Threshold for overlap eigenvalues          ... 1.000e-08
Number of eigenvalues below threshold      ... 0
Time for construction of square roots      ...    0.262 sec
Total time needed                          ...    0.357 sec

--------------------------------
INITIAL GUESS: MINIMAL BASIS EHT
--------------------------------
The minimal basis has 49 functions
EHT matrix was diagonalized
Basis set overlap was calculated now projecting the orbitals
Using GuessMode=FMatrix for the initial guess
C*T matrix was formed
Effective Fockian was calculated
Effective Fockian was diagonalized
Initial density was built
                      ------------------
                      INITIAL GUESS DONE
                      ------------------
-------------------
DFT GRID GENERATION
-------------------

General Integration Accuracy     IntAcc      ... 4.959
Radial Grid Type                 RadialGrid  ... OptM3 with GC (2021)
Angular Grid (max. ang.)         AngularGrid ... 6 (Lebedev-590)
Angular grid pruning method      GridPruning ... 4 (adaptive)
Weight generation scheme         WeightScheme... Becke
Basis function cutoff            BFCut       ... 1.0000e-11
Integration weight cutoff        WCut        ... 1.0000e-14
Angular grids for H and He will be reduced by one unit
Partially contracted basis set               ... off
Rotationally invariant grid construction     ... off

Total number of grid points                  ...   219172
Total number of batches                      ...     3438
Average number of points per batch           ...       63
Average number of grid points per atom       ...    10437
Time for grid setup =    5.241 sec

--------------------
COSX GRID GENERATION
--------------------

GRIDX 1
-------
General Integration Accuracy     IntAcc      ... 4.020
Radial Grid Type                 RadialGrid  ... OptM3 with GC (2021)
Angular Grid (max. ang.)         AngularGrid ... 2 (Lebedev-110)
Angular grid pruning method      GridPruning ... 4 (adaptive)
Weight generation scheme         WeightScheme... Becke
Basis function cutoff            BFCut       ... 1.0000e-11
Integration weight cutoff        WCut        ... 1.0000e-14
Angular grids for H and He will be reduced by one unit
Partially contracted basis set               ... on
Rotationally invariant grid construction     ... off

Total number of grid points                  ...    22773
Total number of batches                      ...      366
Average number of points per batch           ...       62
Average number of grid points per atom       ...     1084
UseSFitting                                  ... on

GRIDX 2
-------
General Integration Accuracy     IntAcc      ... 4.338
Radial Grid Type                 RadialGrid  ... OptM3 with GC (2021)
Angular Grid (max. ang.)         AngularGrid ... 3 (Lebedev-194)
Angular grid pruning method      GridPruning ... 4 (adaptive)
Weight generation scheme         WeightScheme... Becke
Basis function cutoff            BFCut       ... 1.0000e-11
Integration weight cutoff        WCut        ... 1.0000e-14
Angular grids for H and He will be reduced by one unit
Partially contracted basis set               ... on
Rotationally invariant grid construction     ... off

Total number of grid points                  ...    49608
Total number of batches                      ...      786
Average number of points per batch           ...       63
Average number of grid points per atom       ...     2362
UseSFitting                                  ... on

GRIDX 3
-------
General Integration Accuracy     IntAcc      ... 4.871
Radial Grid Type                 RadialGrid  ... OptM3 with GC (2021)
Angular Grid (max. ang.)         AngularGrid ... 4 (Lebedev-302)
Angular grid pruning method      GridPruning ... 4 (adaptive)
Weight generation scheme         WeightScheme... Becke
Basis function cutoff            BFCut       ... 1.0000e-11
Integration weight cutoff        WCut        ... 1.0000e-14
Angular grids for H and He will be reduced by one unit
Partially contracted basis set               ... on
Rotationally invariant grid construction     ... off

Total number of grid points                  ...    98546
Total number of batches                      ...     1550
Average number of points per batch           ...       63
Average number of grid points per atom       ...     4693
UseSFitting                                  ... on

Time for X-Grid setup             =    5.547 sec

--------------
SCF ITERATIONS
--------------
ITER       Energy         Delta-E        Max-DP      RMS-DP      [F,P]     Damp
               ***  Starting incremental Fock matrix formation  ***
  0   -274.1025903473   0.000000000000 0.04635883  0.00223572  0.4037665 0.7000
  1   -274.2493395499  -0.146749202615 0.03201819  0.00169850  0.2861503 0.7000
                      *** Initiating the SOSCF procedure ***
                      *** Re-Reading the Fockian *** 
                      *** Removing any level shift *** 
ITER      Energy       Delta-E        Grad      Rot      Max-DP    RMS-DP
  2   -274.35436507  -0.1050255222  0.002381  0.002381  0.078843  0.004254
               *** Restarting incremental Fock matrix formation ***
  3   -274.60545442  -0.2510893495  0.005807  0.004871  0.015314  0.000890
  4   -274.60618440  -0.0007299823  0.002035  0.002290  0.004376  0.000227
  5   -274.60636524  -0.0001808363  0.001159  0.000661  0.001362  0.000083
  6   -274.60638638  -0.0000211443  0.000137  0.000098  0.000627  0.000015
  7   -274.60638691  -0.0000005227  0.000095  0.000043  0.000231  0.000008
  8   -274.60638730  -0.0000003887  0.000008  0.000008  0.000030  0.000002
  9   -274.60638730  -0.0000000055  0.000004  0.000003  0.000009  0.000001
                 **** Energy Check signals convergence ****
              ***Rediagonalizing the Fockian in SOSCF/NRSCF***

               *****************************************************
               *                     SUCCESS                       *
               *           SCF CONVERGED AFTER  10 CYCLES          *
               *****************************************************

Old exchange energy                            =    -17.360099293 Eh
New exchange energy                            =    -17.360097157 Eh
Exchange energy change after final integration =      0.000002136 Eh
Total energy after final integration           =   -274.606385162 Eh
Final COS-X integration done in                =     4.277 sec

----------------
TOTAL SCF ENERGY
----------------

Total Energy       :         -274.60638516 Eh           -7472.41963 eV

Components:
Nuclear Repulsion  :          333.64546291 Eh            9078.95461 eV
Electronic Energy  :         -608.25184807 Eh          -16551.37424 eV
One Electron Energy:        -1030.17605809 Eh          -28032.51569 eV
Two Electron Energy:          421.92421002 Eh           11481.14144 eV
Max COSX asymmetry :            0.00000096 Eh               0.00003 eV

Virial components:
Potential Energy   :         -546.90512280 Eh          -14882.04498 eV
Kinetic Energy     :          272.29873764 Eh            7409.62535 eV
Virial Ratio       :            2.00847469


DFT components:
N(Alpha)           :       28.000005503607 electrons
N(Beta)            :       28.000005503607 electrons
N(Total)           :       56.000011007215 electrons
E(X)               :      -22.993182565379 Eh       
E(C)               :       -2.385160549384 Eh       
E(XC)              :      -25.378343114763 Eh       
DFET-embed. en.    :        0.000000000000 Eh       

---------------
SCF CONVERGENCE
---------------

  Last Energy change         ...    2.8586e-09  Tolerance :   1.0000e-08
  Last MAX-Density change    ...    8.8818e-16  Tolerance :   1.0000e-07
  Last RMS-Density change    ...    3.0452e-17  Tolerance :   5.0000e-09
  Last Orbital Gradient      ...    4.9601e-07  Tolerance :   1.0000e-05
  Last Orbital Rotation      ...    3.7560e-07  Tolerance :   1.0000e-05

             **** THE GBW FILE WAS UPDATED (pbeh-3c.gbw) ****
             **** DENSITY pbeh-3c.scfp WAS UPDATED ****
             **** ENERGY FILE WAS UPDATED (pbeh-3c.en.tmp) ****
             **** THE GBW FILE WAS UPDATED (pbeh-3c.gbw) ****
             **** DENSITY pbeh-3c.scfp WAS UPDATED ****
----------------
ORBITAL ENERGIES
----------------

  NO   OCC          E(Eh)            E(eV) 
   0   2.0000     -10.431360      -283.8517 
   1   2.0000     -10.430960      -283.8409 
   2   2.0000     -10.423997      -283.6514 
   3   2.0000     -10.422563      -283.6124 
   4   2.0000     -10.422331      -283.6061 
   5   2.0000     -10.417524      -283.4752 
   6   2.0000     -10.417239      -283.4675 
   7   2.0000      -0.937983       -25.5238 
   8   2.0000      -0.826844       -22.4996 
   9   2.0000      -0.818728       -22.2787 
  10   2.0000      -0.746736       -20.3197 
  11   2.0000      -0.718381       -19.5482 
  12   2.0000      -0.626403       -17.0453 
  13   2.0000      -0.597175       -16.2500 
  14   2.0000      -0.551686       -15.0121 
  15   2.0000      -0.514530       -14.0011 
  16   2.0000      -0.501821       -13.6553 
  17   2.0000      -0.467553       -12.7228 
  18   2.0000      -0.451804       -12.2942 
  19   2.0000      -0.442023       -12.0281 
  20   2.0000      -0.429794       -11.6953 
  21   2.0000      -0.421498       -11.4695 
  22   2.0000      -0.379179       -10.3180 
  23   2.0000      -0.370962       -10.0944 
  24   2.0000      -0.365354        -9.9418 
  25   2.0000      -0.359032        -9.7698 
  26   2.0000      -0.353308        -9.6140 
  27   2.0000      -0.345289        -9.3958 
  28   0.0000       0.122193         3.3250 
  29   0.0000       0.143183         3.8962 
  30   0.0000       0.168434         4.5833 
  31   0.0000       0.181467         4.9380 
  32   0.0000       0.191634         5.2146 
  33   0.0000       0.194321         5.2877 
  34   0.0000       0.207809         5.6548 
  35   0.0000       0.217610         5.9215 
  36   0.0000       0.224774         6.1164 
  37   0.0000       0.228603         6.2206 
  38   0.0000       0.238320         6.4850 
  39   0.0000       0.245647         6.6844 
  40   0.0000       0.250814         6.8250 
  41   0.0000       0.264692         7.2026 
  42   0.0000       0.265037         7.2120 
  43   0.0000       0.277502         7.5512 
  44   0.0000       0.281531         7.6608 
  45   0.0000       0.314016         8.5448 
  46   0.0000       0.321569         8.7503 
  47   0.0000       0.337115         9.1734 
  48   0.0000       0.347138         9.4461 
  49   0.0000       0.496761        13.5175 
  50   0.0000       0.514743        14.0069 
  51   0.0000       0.519899        14.1472 
  52   0.0000       0.531956        14.4753 
  53   0.0000       0.540727        14.7139 
  54   0.0000       0.560833        15.2610 
  55   0.0000       0.612940        16.6789 
  56   0.0000       0.627035        17.0625 
  57   0.0000       0.644370        17.5342 
  58   0.0000       0.665730        18.1154 
  59   0.0000       0.678527        18.4636 
  60   0.0000       0.695231        18.9182 
  61   0.0000       0.698567        19.0090 
  62   0.0000       0.736435        20.0394 
  63   0.0000       0.751660        20.4537 
  64   0.0000       0.759062        20.6551 
  65   0.0000       0.772331        21.0162 
  66   0.0000       0.845449        23.0058 
  67   0.0000       0.870386        23.6844 
  68   0.0000       0.884466        24.0675 
  69   0.0000       0.957695        26.0602 
  70   0.0000       0.975722        26.5507 
  71   0.0000       0.985309        26.8116 
  72   0.0000       1.011660        27.5287 
  73   0.0000       1.023307        27.8456 
  74   0.0000       1.035346        28.1732 
  75   0.0000       1.037255        28.2251 
  76   0.0000       1.044301        28.4169 
  77   0.0000       1.054903        28.7054 
  78   0.0000       1.076832        29.3021 
  79   0.0000       1.077702        29.3258 
  80   0.0000       1.080059        29.3899 
  81   0.0000       1.100007        29.9327 
  82   0.0000       1.125664        30.6309 
  83   0.0000       1.143641        31.1201 
  84   0.0000       1.229012        33.4431 
  85   0.0000       1.308759        35.6131 
  86   0.0000       1.350730        36.7552 
  87   0.0000       1.368785        37.2465 
  88   0.0000       1.433904        39.0185 
  89   0.0000       1.484050        40.3830 
  90   0.0000       1.574121        42.8340 
  91   0.0000       1.590116        43.2693 
  92   0.0000       1.675791        45.6006 
  93   0.0000       1.742409        47.4134 
  94   0.0000       1.781766        48.4843 
  95   0.0000       1.809838        49.2482 
  96   0.0000       1.842824        50.1458 
  97   0.0000       1.883783        51.2603 
  98   0.0000       1.896094        51.5953 
  99   0.0000       1.918176        52.1962 
 100   0.0000       1.961335        53.3706 
 101   0.0000       1.982652        53.9507 
 102   0.0000       2.005027        54.5596 
 103   0.0000       2.045169        55.6519 
 104   0.0000       2.072962        56.4082 
 105   0.0000       2.131216        57.9933 
 106   0.0000       2.163489        58.8715 
 107   0.0000       2.168945        59.0200 
 108   0.0000       2.210773        60.1582 
 109   0.0000       2.250987        61.2525 
 110   0.0000       2.277778        61.9815 
 111   0.0000       2.298900        62.5563 
 112   0.0000       2.318124        63.0794 
 113   0.0000       2.377185        64.6865 
 114   0.0000       2.426205        66.0204 
 115   0.0000       2.458967        66.9119 
 116   0.0000       2.477939        67.4282 
 117   0.0000       2.535104        68.9837 
 118   0.0000       2.576695        70.1154 
 119   0.0000       2.629436        71.5506 
 120   0.0000       2.663601        72.4803 
 121   0.0000       2.708931        73.7137 
 122   0.0000       2.741823        74.6088 
 123   0.0000       2.781891        75.6991 
 124   0.0000       2.819117        76.7121 
 125   0.0000       2.922941        79.5373 
 126   0.0000      13.505560       367.5050 
 127   0.0000      13.798900       375.4872 
 128   0.0000      13.806813       375.7025 
 129   0.0000      13.933210       379.1419 
 130   0.0000      14.029140       381.7523 
 131   0.0000      14.136327       384.6690 
 132   0.0000      14.165392       385.4599 

                    ********************************
                    * MULLIKEN POPULATION ANALYSIS *
                    ********************************

-----------------------
MULLIKEN ATOMIC CHARGES
-----------------------
   0 C :   -0.233671
   1 C :   -0.423028
   2 C :   -0.210863
   3 C :   -0.427092
   4 C :   -0.438206
   5 C :   -0.651366
   6 C :   -0.645122
   7 H :    0.215391
   8 H :    0.216376
   9 H :    0.215987
  10 H :    0.212957
  11 H :    0.222084
  12 H :    0.209362
  13 H :    0.221370
  14 H :    0.217153
  15 H :    0.212324
  16 H :    0.220303
  17 H :    0.222106
  18 H :    0.209844
  19 H :    0.214628
  20 H :    0.219464
Sum of atomic charges:   -0.0000000

--------------------------------
MULLIKEN REDUCED ORBITAL CHARGES
--------------------------------
  0 C s       :     3.278654  s :     3.278654
      pz      :     0.914191  p :     2.905484
      px      :     1.071328
      py      :     0.919965
      dz2     :     0.012869  d :     0.049534
      dxz     :     0.006875
      dyz     :     0.010004
      dx2y2   :     0.010307
      dxy     :     0.009479
  1 C s       :     3.324200  s :     3.324200
      pz      :     1.129203  p :     3.055887
      px      :     0.917450
      py      :     1.009233
      dz2     :     0.008417  d :     0.042941
      dxz     :     0.004838
      dyz     :     0.011648
      dx2y2   :     0.008822
      dxy     :     0.009216
  2 C s       :     3.270335  s :     3.270335
      pz      :     1.053351  p :     2.890852
      px      :     0.918617
      py      :     0.918884
      dz2     :     0.012922  d :     0.049676
      dxz     :     0.005893
      dyz     :     0.008727
      dx2y2   :     0.012899
      dxy     :     0.009235
  3 C s       :     3.318780  s :     3.318780
      pz      :     1.129900  p :     3.066423
      px      :     0.962282
      py      :     0.974242
      dz2     :     0.006324  d :     0.041888
      dxz     :     0.008642
      dyz     :     0.009848
      dx2y2   :     0.010284
      dxy     :     0.006789
  4 C s       :     3.320415  s :     3.320415
      pz      :     1.133187  p :     3.075950
      px      :     1.001231
      py      :     0.941532
      dz2     :     0.007229  d :     0.041841
      dxz     :     0.011052
      dyz     :     0.006086
      dx2y2   :     0.008740
      dxy     :     0.008734
  5 C s       :     3.374640  s :     3.374640
      pz      :     0.981741  p :     3.239768
      px      :     1.124868
      py      :     1.133159
      dz2     :     0.008251  d :     0.036958
      dxz     :     0.005656
      dyz     :     0.009050
      dx2y2   :     0.005976
      dxy     :     0.008026
  6 C s       :     3.376544  s :     3.376544
      pz      :     1.120317  p :     3.231405
      px      :     1.112387
      py      :     0.998702
      dz2     :     0.008695  d :     0.037173
      dxz     :     0.003021
      dyz     :     0.009554
      dx2y2   :     0.010693
      dxy     :     0.005211
  7 H s       :     0.784609  s :     0.784609
  8 H s       :     0.783624  s :     0.783624
  9 H s       :     0.784013  s :     0.784013
 10 H s       :     0.787043  s :     0.787043
 11 H s       :     0.777916  s :     0.777916
 12 H s       :     0.790638  s :     0.790638
 13 H s       :     0.778630  s :     0.778630
 14 H s       :     0.782847  s :     0.782847
 15 H s       :     0.787676  s :     0.787676
 16 H s       :     0.779697  s :     0.779697
 17 H s       :     0.777894  s :     0.777894
 18 H s       :     0.790156  s :     0.790156
 19 H s       :     0.785372  s :     0.785372
 20 H s       :     0.780536  s :     0.780536


                     *******************************
                     * LOEWDIN POPULATION ANALYSIS *
                     *******************************

----------------------
LOEWDIN ATOMIC CHARGES
----------------------
   0 C :   -0.154978
   1 C :   -0.234698
   2 C :   -0.153063
   3 C :   -0.238994
   4 C :   -0.244756
   5 C :   -0.355743
   6 C :   -0.354643
   7 H :    0.120463
   8 H :    0.122146
   9 H :    0.122383
  10 H :    0.120989
  11 H :    0.125874
  12 H :    0.120650
  13 H :    0.125235
  14 H :    0.123149
  15 H :    0.124588
  16 H :    0.127343
  17 H :    0.126782
  18 H :    0.123889
  19 H :    0.125596
  20 H :    0.127788

-------------------------------
LOEWDIN REDUCED ORBITAL CHARGES
-------------------------------
  0 C s       :     2.876122  s :     2.876122
      pz      :     1.052561  p :     3.170317
      px      :     1.073504
      py      :     1.044252
      dz2     :     0.029620  d :     0.108539
      dxz     :     0.013773
      dyz     :     0.023602
      dx2y2   :     0.019901
      dxy     :     0.021643
  1 C s       :     2.915189  s :     2.915189
      pz      :     1.107932  p :     3.231668
      px      :     1.052173
      py      :     1.071564
      dz2     :     0.015364  d :     0.087840
      dxz     :     0.009867
      dyz     :     0.021487
      dx2y2   :     0.018897
      dxy     :     0.022227
  2 C s       :     2.875163  s :     2.875163
      pz      :     1.076072  p :     3.169385
      px      :     1.046816
      py      :     1.046497
      dz2     :     0.025288  d :     0.108515
      dxz     :     0.012532
      dyz     :     0.018914
      dx2y2   :     0.030853
      dxy     :     0.020929
  3 C s       :     2.914593  s :     2.914593
      pz      :     1.115697  p :     3.239186
      px      :     1.061136
      py      :     1.062352
      dz2     :     0.011602  d :     0.085215
      dxz     :     0.016114
      dyz     :     0.018389
      dx2y2   :     0.024879
      dxy     :     0.014230
  4 C s       :     2.914558  s :     2.914558
      pz      :     1.118087  p :     3.245305
      px      :     1.071462
      py      :     1.055756
      dz2     :     0.013186  d :     0.084893
      dxz     :     0.020146
      dyz     :     0.011738
      dx2y2   :     0.020746
      dxy     :     0.019077
  5 C s       :     2.947408  s :     2.947408
      pz      :     1.081316  p :     3.338715
      px      :     1.128636
      py      :     1.128763
      dz2     :     0.017942  d :     0.069620
      dxz     :     0.011548
      dyz     :     0.017404
      dx2y2   :     0.009540
      dxy     :     0.013186
  6 C s       :     2.946583  s :     2.946583
      pz      :     1.128881  p :     3.338057
      px      :     1.121349
      py      :     1.087827
      dz2     :     0.015526  d :     0.070003
      dxz     :     0.004806
      dyz     :     0.017950
      dx2y2   :     0.020666
      dxy     :     0.011054
  7 H s       :     0.879537  s :     0.879537
  8 H s       :     0.877854  s :     0.877854
  9 H s       :     0.877617  s :     0.877617
 10 H s       :     0.879011  s :     0.879011
 11 H s       :     0.874126  s :     0.874126
 12 H s       :     0.879350  s :     0.879350
 13 H s       :     0.874765  s :     0.874765
 14 H s       :     0.876851  s :     0.876851
 15 H s       :     0.875412  s :     0.875412
 16 H s       :     0.872657  s :     0.872657
 17 H s       :     0.873218  s :     0.873218
 18 H s       :     0.876111  s :     0.876111
 19 H s       :     0.874404  s :     0.874404
 20 H s       :     0.872212  s :     0.872212


                      *****************************
                      * MAYER POPULATION ANALYSIS *
                      *****************************

  NA   - Mulliken gross atomic population
  ZA   - Total nuclear charge
  QA   - Mulliken gross atomic charge
  VA   - Mayer's total valence
  BVA  - Mayer's bonded valence
  FA   - Mayer's free valence

  ATOM       NA         ZA         QA         VA         BVA        FA
  0 C      6.2337     6.0000    -0.2337     3.7289     3.7289    -0.0000
  1 C      6.4230     6.0000    -0.4230     3.7043     3.7043     0.0000
  2 C      6.2109     6.0000    -0.2109     3.7160     3.7160     0.0000
  3 C      6.4271     6.0000    -0.4271     3.7014     3.7014    -0.0000
  4 C      6.4382     6.0000    -0.4382     3.7208     3.7208    -0.0000
  5 C      6.6514     6.0000    -0.6514     3.7170     3.7170    -0.0000
  6 C      6.6451     6.0000    -0.6451     3.7436     3.7436    -0.0000
  7 H      0.7846     1.0000     0.2154     0.9090     0.9090    -0.0000
  8 H      0.7836     1.0000     0.2164     0.9170     0.9170    -0.0000
  9 H      0.7840     1.0000     0.2160     0.9103     0.9103     0.0000
 10 H      0.7870     1.0000     0.2130     0.9021     0.9021     0.0000
 11 H      0.7779     1.0000     0.2221     0.9134     0.9134    -0.0000
 12 H      0.7906     1.0000     0.2094     0.9146     0.9146    -0.0000
 13 H      0.7786     1.0000     0.2214     0.9133     0.9133     0.0000
 14 H      0.7828     1.0000     0.2172     0.9104     0.9104     0.0000
 15 H      0.7877     1.0000     0.2123     0.9146     0.9146    -0.0000
 16 H      0.7797     1.0000     0.2203     0.9136     0.9136    -0.0000
 17 H      0.7779     1.0000     0.2221     0.9125     0.9125     0.0000
 18 H      0.7902     1.0000     0.2098     0.9167     0.9167     0.0000
 19 H      0.7854     1.0000     0.2146     0.9143     0.9143    -0.0000
 20 H      0.7805     1.0000     0.2195     0.9118     0.9118    -0.0000

  Mayer bond orders larger than 0.100000
B(  0-C ,  1-C ) :   0.9781 B(  0-C ,  2-C ) :   0.9638 B(  0-C ,  5-C ) :   0.9813 
B(  0-C ,  7-H ) :   0.9216 B(  1-C ,  4-C ) :   0.9681 B(  1-C ,  8-H ) :   0.9310 
B(  1-C ,  9-H ) :   0.9267 B(  2-C ,  3-C ) :   0.9661 B(  2-C ,  6-C ) :   0.9980 
B(  2-C , 10-H ) :   0.9143 B(  3-C ,  4-C ) :   0.9655 B(  3-C , 11-H ) :   0.9306 
B(  3-C , 12-H ) :   0.9281 B(  4-C , 13-H ) :   0.9330 B(  4-C , 14-H ) :   0.9309 
B(  5-C , 15-H ) :   0.9259 B(  5-C , 16-H ) :   0.9288 B(  5-C , 17-H ) :   0.9272 
B(  6-C , 18-H ) :   0.9250 B(  6-C , 19-H ) :   0.9308 B(  6-C , 20-H ) :   0.9296 


-------
TIMINGS
-------

Total SCF time: 0 days 0 hours 1 min 28 sec 

Total time                  ....      88.127 sec
Sum of individual times     ....      83.844 sec  ( 95.1%)

Fock matrix formation       ....      70.042 sec  ( 79.5%)
  Split-RI-J                ....       6.613 sec  (  9.4% of F)
  Chain of spheres X        ....      36.455 sec  ( 52.0% of F)
  XC integration            ....      16.050 sec  ( 22.9% of F)
    Basis function eval.    ....       4.069 sec  ( 25.4% of XC)
    Density eval.           ....       2.170 sec  ( 13.5% of XC)
    XC-Functional eval.     ....       1.343 sec  (  8.4% of XC)
    XC-Potential eval.      ....       1.601 sec  ( 10.0% of XC)
Diagonalization             ....       0.626 sec  (  0.7%)
Density matrix formation    ....       0.094 sec  (  0.1%)
Population analysis         ....       0.020 sec  (  0.0%)
Initial guess               ....       0.039 sec  (  0.0%)
Orbital Transformation      ....       0.000 sec  (  0.0%)
Orbital Orthonormalization  ....       0.000 sec  (  0.0%)
DIIS solution               ....       1.215 sec  (  1.4%)
SOSCF solution              ....       1.019 sec  (  1.2%)
Grid generation             ....      10.788 sec  ( 12.2%)

Maximum memory used throughout the entire SCF-calculation: 57.4 MB


-------------------------------------------------------------------------------
                          DFT DISPERSION CORRECTION                            
                                                                               
                              DFTD3 V3.1  Rev 1                                
                          USING Becke-Johnson damping                          
-------------------------------------------------------------------------------
The PBEh-3c composite method is recognized
Using three-body term ABC
Active option DFTDOPT                   ...         4   

molecular C6(AA) [au] = 2960.911008 


            DFT-D V3
 parameters
 s6 scaling factor         :     1.0000 
 a1 scaling factor         :     0.4860 
 s8 scaling factor         :     0.0000 
 a2 scaling factor         :     4.5000 
 Damping factor alpha9(ATM):    16.0000 
 ad hoc parameters k1-k3   :    16.0000     1.3333    -4.0000 

 Edisp/kcal,au: -7.045586315711  -0.011227855284 
 E6   /kcal   :  -7.112599862 
 E8   /kcal   :  -0.000000000 
 E6(ABC)      :   0.067013546 
 % E8         :   0.000000000 
 % E6(ABC)    :  -0.951142218 

-------------------------   ----------------
Dispersion correction           -0.011227855
-------------------------   ----------------

------------------   -----------------
gCP correction             0.031482076
------------------   -----------------

-------------------------   --------------------
FINAL SINGLE POINT ENERGY      -274.586130940937
-------------------------   --------------------


                            ***************************************
                            *     ORCA property calculations      *
                            ***************************************

                                    ---------------------
                                    Active property flags
                                    ---------------------
   (+) Dipole Moment


------------------------------------------------------------------------------
                       ORCA ELECTRIC PROPERTIES CALCULATION
------------------------------------------------------------------------------

Dipole Moment Calculation                       ... on
Quadrupole Moment Calculation                   ... off
Polarizability Calculation                      ... off
GBWName                                         ... pbeh-3c.gbw
Electron density                                ... pbeh-3c.scfp
The origin for moment calculation is the CENTER OF MASS  = ( 0.030609, -0.121469 -0.120414)

-------------
DIPOLE MOMENT
-------------
                                X             Y             Z
Electronic contribution:      0.32702      -1.39390      -1.41029
Nuclear contribution   :     -0.34836       1.38241       1.37041
                        -----------------------------------------
Total Dipole Moment    :     -0.02133      -0.01149      -0.03988
                        -----------------------------------------
Magnitude (a.u.)       :      0.04666
Magnitude (Debye)      :      0.11861



--------------------
Rotational spectrum 
--------------------
 
Rotational constants in cm-1:     0.115321     0.085378     0.062915 
Rotational constants in MHz :  3457.240126  2559.562138  1886.151523 

 Dipole components along the rotational axes: 
x,y,z [a.u.] :    -0.001880     0.008216    -0.045895 
x,y,z [Debye]:    -0.004779     0.020884    -0.116656 

 

Timings for individual modules:

Sum of individual times         ...       90.837 sec (=   1.514 min)
GTO integral calculation        ...        1.923 sec (=   0.032 min)   2.1 %
SCF iterations                  ...       88.914 sec (=   1.482 min)  97.9 %
                             ****ORCA TERMINATED NORMALLY****
TOTAL RUN TIME: 0 days 0 hours 1 minutes 32 seconds 76 msec
