
                                 *****************
                                 * O   R   C   A *
                                 *****************

                                            #,                                       
                                            ###                                      
                                            ####                                     
                                            #####                                    
                                            ######                                   
                                           ########,                                 
                                     ,,################,,,,,                         
                               ,,#################################,,                 
                          ,,##########################################,,             
                       ,#########################################, ''#####,          
                    ,#############################################,,   '####,        
                  ,##################################################,,,,####,       
                ,###########''''           ''''###############################       
              ,#####''   ,,,,##########,,,,          '''####'''          '####       
            ,##' ,,,,###########################,,,                        '##       
           ' ,,###''''                  '''############,,,                           
         ,,##''                                '''############,,,,        ,,,,,,###''
      ,#''                                            '''#######################'''  
     '                                                          ''''####''''         
             ,#######,   #######,   ,#######,      ##                                
            ,#'     '#,  ##    ##  ,#'     '#,    #''#        ######   ,####,        
            ##       ##  ##   ,#'  ##            #'  '#       #        #'  '#        
            ##       ##  #######   ##           ,######,      #####,   #    #        
            '#,     ,#'  ##    ##  '#,     ,#' ,#      #,         ##   #,  ,#        
             '#######'   ##     ##  '#######'  #'      '#     #####' # '####'        



                  #######################################################
                  #                        -***-                        #
                  #          Department of theory and spectroscopy      #
                  #    Directorship and core code : Frank Neese         #
                  #        Max Planck Institute fuer Kohlenforschung    #
                  #                Kaiser Wilhelm Platz 1               #
                  #                 D-45470 Muelheim/Ruhr               #
                  #                      Germany                        #
                  #                                                     #
                  #                  All rights reserved                #
                  #                        -***-                        #
                  #######################################################


                         Program Version 5.0.3 -  RELEASE  -


 With contributions from (in alphabetic order):
   Daniel Aravena         : Magnetic Suceptibility
   Michael Atanasov       : Ab Initio Ligand Field Theory (pilot matlab implementation)
   Alexander A. Auer      : GIAO ZORA, VPT2 properties, NMR spectrum
   Ute Becker             : Parallelization
   Giovanni Bistoni       : ED, misc. LED, open-shell LED, HFLD
   Martin Brehm           : Molecular dynamics
   Dmytro Bykov           : SCF Hessian
   Vijay G. Chilkuri      : MRCI spin determinant printing, contributions to CSF-ICE
   Dipayan Datta          : RHF DLPNO-CCSD density
   Achintya Kumar Dutta   : EOM-CC, STEOM-CC
   Dmitry Ganyushin       : Spin-Orbit,Spin-Spin,Magnetic field MRCI
   Miquel Garcia          : C-PCM and meta-GGA Hessian, CC/C-PCM, Gaussian charge scheme
   Yang Guo               : DLPNO-NEVPT2, F12-NEVPT2, CIM, IAO-localization
   Andreas Hansen         : Spin unrestricted coupled pair/coupled cluster methods
   Benjamin Helmich-Paris : MC-RPA, TRAH-SCF, COSX integrals
   Lee Huntington         : MR-EOM, pCC
   Robert Izsak           : Overlap fitted RIJCOSX, COSX-SCS-MP3, EOM
   Marcus Kettner         : VPT2
   Christian Kollmar      : KDIIS, OOCD, Brueckner-CCSD(T), CCSD density, CASPT2, CASPT2-K
   Simone Kossmann        : Meta GGA functionals, TD-DFT gradient, OOMP2, MP2 Hessian
   Martin Krupicka        : Initial AUTO-CI
   Lucas Lang             : DCDCAS
   Marvin Lechner         : AUTO-CI (C++ implementation), FIC-MRCC
   Dagmar Lenk            : GEPOL surface, SMD
   Dimitrios Liakos       : Extrapolation schemes; Compound Job, initial MDCI parallelization
   Dimitrios Manganas     : Further ROCIS development; embedding schemes
   Dimitrios Pantazis     : SARC Basis sets
   Anastasios Papadopoulos: AUTO-CI, single reference methods and gradients
   Taras Petrenko         : DFT Hessian,TD-DFT gradient, ASA, ECA, R-Raman, ABS, FL, XAS/XES, NRVS
   Peter Pinski           : DLPNO-MP2, DLPNO-MP2 Gradient
   Christoph Reimann      : Effective Core Potentials
   Marius Retegan         : Local ZFS, SOC
   Christoph Riplinger    : Optimizer, TS searches, QM/MM, DLPNO-CCSD(T), (RO)-DLPNO pert. Triples
   Tobias Risthaus        : Range-separated hybrids, TD-DFT gradient, RPA, STAB
   Michael Roemelt        : Original ROCIS implementation
   Masaaki Saitow         : Open-shell DLPNO-CCSD energy and density
   Barbara Sandhoefer     : DKH picture change effects
   Avijit Sen             : IP-ROCIS
   Kantharuban Sivalingam : CASSCF convergence, NEVPT2, FIC-MRCI
   Bernardo de Souza      : ESD, SOC TD-DFT
   Georgi Stoychev        : AutoAux, RI-MP2 NMR, DLPNO-MP2 response
   Willem Van den Heuvel  : Paramagnetic NMR
   Boris Wezisla          : Elementary symmetry handling
   Frank Wennmohs         : Technical directorship


 We gratefully acknowledge several colleagues who have allowed us to
 interface, adapt or use parts of their codes:
   Stefan Grimme, W. Hujo, H. Kruse, P. Pracht,  : VdW corrections, initial TS optimization,
                  C. Bannwarth, S. Ehlert          DFT functionals, gCP, sTDA/sTD-DF
   Ed Valeev, F. Pavosevic, A. Kumar             : LibInt (2-el integral package), F12 methods
   Garnet Chan, S. Sharma, J. Yang, R. Olivares  : DMRG
   Ulf Ekstrom                                   : XCFun DFT Library
   Mihaly Kallay                                 : mrcc  (arbitrary order and MRCC methods)
   Jiri Pittner, Ondrej Demel                    : Mk-CCSD
   Frank Weinhold                                : gennbo (NPA and NBO analysis)
   Christopher J. Cramer and Donald G. Truhlar   : smd solvation model
   Lars Goerigk                                  : TD-DFT with DH, B97 family of functionals
   V. Asgeirsson, H. Jonsson                     : NEB implementation
   FAccTs GmbH                                   : IRC, NEB, NEB-TS, DLPNO-Multilevel, CI-OPT
                                                   MM, QMMM, 2- and 3-layer-ONIOM, Crystal-QMMM,
                                                   LR-CPCM, SF, NACMEs, symmetry and pop. for TD-DFT,
                                                   nearIR, NL-DFT gradient (VV10), updates on ESD,
                                                   ML-optimized integration grids
   S Lehtola, MJT Oliveira, MAL Marques          : LibXC Library
   Liviu Ungur et al                             : ANISO software


 Your calculation uses the libint2 library for the computation of 2-el integrals
 For citations please refer to: http://libint.valeyev.net

 Your ORCA version has been built with support for libXC version: 5.1.0
 For citations please refer to: https://tddft.org/programs/libxc/

 This ORCA versions uses:
   CBLAS   interface :  Fast vector & matrix operations
   LAPACKE interface :  Fast linear algebra routines
   SCALAPACK package :  Parallel linear algebra routines
   Shared memory     :  Shared parallel matrices
   BLAS/LAPACK       :  OpenBLAS 0.3.15  USE64BITINT DYNAMIC_ARCH NO_AFFINITY Haswell SINGLE_THREADED
        Core in use  :  Haswell
   Copyright (c) 2011-2014, The OpenBLAS Project




***************************************
The coordinates will be read from file: C2H5CO2CH3.xyz
***************************************


Your calculation utilizes the geometrical counterpoise correction gCP
Please cite in your paper:
H.Kruse, S. Grimme J.Chem.Phys., 136, (2012), 154101 
   

Your calculation utilizes the atom-pairwise dispersion correction
with the Becke-Johnson damping scheme (D3BJ)
Cite in your paper:
S.Grimme, S.Ehrlich, L.Goerigk, J Comput Chem, (2011), 32, 1456–1465 
S.Grimme, J.Antony, S.Ehrlich and H.Krieg, J.Chem.Phys., 132, (2010), 154104 
   

Your calculation employs the composite approach PBEh-3c.
Please cite in your paper:
S. Grimme, J. G. Brandenburg, C. Bannwarth, A. Hansen J.Chem.Phys., 143, (2015), 054107 
   

================================================================================

----- Orbital basis set information -----
Your calculation utilizes the basis: def2-mSVP

----- AuxJ basis set information -----
Your calculation utilizes the auxiliary basis: def2/J
   F. Weigend, Phys. Chem. Chem. Phys. 8, 1057 (2006).

================================================================================
                                        WARNINGS
                       Please study these warnings very carefully!
================================================================================


INFO   : the flag for use of the SHARK integral package has been found!

================================================================================
                                       INPUT FILE
================================================================================
NAME = pbeh-3c.inp
|  1> ! PBEh-3c def2/J TightSCF DefGrid3
|  2> 
|  3> %maxcore 60000
|  4> 
|  5> %pal
|  6> nprocs 4
|  7> end
|  8> 
|  9> *xyzfile 0 1 C2H5CO2CH3.xyz
| 10> 
| 11>                          ****END OF INPUT****
================================================================================

                       ****************************
                       * Single Point Calculation *
                       ****************************

---------------------------------
CARTESIAN COORDINATES (ANGSTROEM)
---------------------------------
  C      1.998606   -0.771516   -0.870144
  H      2.584107   -1.700099   -0.904814
  H      2.617511    0.012116   -0.414656
  H      1.783747   -0.461134   -1.901228
  C      0.711388   -0.984173   -0.078950
  H      0.925532   -1.328906    0.946218
  H      0.084462   -1.772255   -0.524486
  C     -0.130642    0.271004    0.038325
  O      0.189712    1.382429   -0.333352
  O     -1.323150   -0.004183    0.638025
  C     -2.193689    1.135109    0.814796
  H     -3.092363    0.742967    1.301161
  H     -1.712285    1.894661    1.444721
  H     -2.442937    1.583979   -0.155616

----------------------------
CARTESIAN COORDINATES (A.U.)
----------------------------
  NO LB      ZA    FRAG     MASS         X           Y           Z
   0 C     6.0000    0    12.011    3.776818   -1.457953   -1.644333
   1 H     1.0000    0     1.008    4.883254   -3.212722   -1.709850
   2 H     1.0000    0     1.008    4.946378    0.022896   -0.783587
   3 H     1.0000    0     1.008    3.370794   -0.871418   -3.592800
   4 C     6.0000    0    12.011    1.344329   -1.859818   -0.149193
   5 H     1.0000    0     1.008    1.749003   -2.511268    1.788093
   6 H     1.0000    0     1.008    0.159611   -3.349077   -0.991134
   7 C     6.0000    0    12.011   -0.246878    0.512124    0.072423
   8 O     8.0000    0    15.999    0.358504    2.612413   -0.629945
   9 O     8.0000    0    15.999   -2.500391   -0.007904    1.205692
  10 C     6.0000    0    12.011   -4.145472    2.145046    1.539741
  11 H     1.0000    0     1.008   -5.843719    1.404004    2.458838
  12 H     1.0000    0     1.008   -3.235751    3.580391    2.730127
  13 H     1.0000    0     1.008   -4.616481    2.993286   -0.294072

--------------------------------
INTERNAL COORDINATES (ANGSTROEM)
--------------------------------
 C      0   0   0     0.000000000000     0.00000000     0.00000000
 H      1   0   0     1.098308229092     0.00000000     0.00000000
 H      1   2   0     1.097538355024   108.42986219     0.00000000
 H      1   2   3     1.098014476317   108.28024236   116.17646800
 C      1   2   3     1.525824993696   110.38108763   238.08599976
 H      5   1   2     1.102573077397   111.21437036    57.88603114
 H      5   1   2     1.101186471977   111.73013481   300.60144051
 C      5   1   2     1.515994168372   113.15950055   178.55076461
 O      8   5   1     1.214922328609   125.96568539   353.63816767
 O      8   5   1     1.362880059832   110.66228512   174.08498406
 C     10   8   5     1.444670777872   114.95241267   179.13671923
 H     11  10   8     1.094505019416   105.46181063   179.92445975
 H     11  10   8     1.097940763635   110.58245471   299.59504400
 H     11  10   8     1.097864963858   110.55339752    60.27373156

---------------------------
INTERNAL COORDINATES (A.U.)
---------------------------
 C      0   0   0     0.000000000000     0.00000000     0.00000000
 H      1   0   0     2.075501763616     0.00000000     0.00000000
 H      1   2   0     2.074046912469   108.42986219     0.00000000
 H      1   2   3     2.074946651321   108.28024236   116.17646800
 C      1   2   3     2.883391366378   110.38108763   238.08599976
 H      5   1   2     2.083561158914   111.21437036    57.88603114
 H      5   1   2     2.080940854415   111.73013481   300.60144051
 C      5   1   2     2.864813798845   113.15950055   178.55076461
 O      8   5   1     2.295870475057   125.96568539   353.63816767
 O      8   5   1     2.575470066465   110.66228512   174.08498406
 C     10   8   5     2.730032123857   114.95241267   179.13671923
 H     11  10   8     2.068314738898   105.46181063   179.92445975
 H     11  10   8     2.074807354539   110.58245471   299.59504400
 H     11  10   8     2.074664113719   110.55339752    60.27373156

---------------------
BASIS SET INFORMATION
---------------------
There are 3 groups of distinct atoms

 Group   1 Type C   : 8s4p1d contracted to 4s2p1d pattern {5111/31/1}
 Group   2 Type H   : 4s contracted to 2s pattern {31}
 Group   3 Type O   : 8s4p1d contracted to 4s2p1d pattern {5111/31/1}

Atom   0C    basis set group =>   1
Atom   1H    basis set group =>   2
Atom   2H    basis set group =>   2
Atom   3H    basis set group =>   2
Atom   4C    basis set group =>   1
Atom   5H    basis set group =>   2
Atom   6H    basis set group =>   2
Atom   7C    basis set group =>   1
Atom   8O    basis set group =>   3
Atom   9O    basis set group =>   3
Atom  10C    basis set group =>   1
Atom  11H    basis set group =>   2
Atom  12H    basis set group =>   2
Atom  13H    basis set group =>   2
---------------------------------
AUXILIARY/J BASIS SET INFORMATION
---------------------------------
There are 3 groups of distinct atoms

 Group   1 Type C   : 12s5p4d2f1g contracted to 6s4p3d1f1g pattern {711111/2111/211/2/1}
 Group   2 Type H   : 5s2p1d contracted to 3s1p1d pattern {311/2/1}
 Group   3 Type O   : 12s5p4d2f1g contracted to 6s4p3d1f1g pattern {711111/2111/211/2/1}

Atom   0C    basis set group =>   1
Atom   1H    basis set group =>   2
Atom   2H    basis set group =>   2
Atom   3H    basis set group =>   2
Atom   4C    basis set group =>   1
Atom   5H    basis set group =>   2
Atom   6H    basis set group =>   2
Atom   7C    basis set group =>   1
Atom   8O    basis set group =>   3
Atom   9O    basis set group =>   3
Atom  10C    basis set group =>   1
Atom  11H    basis set group =>   2
Atom  12H    basis set group =>   2
Atom  13H    basis set group =>   2


           ************************************************************
           *        Program running with 4 parallel MPI-processes     *
           *              working on a common directory               *
           ************************************************************
------------------------------------------------------------------------------
                           ORCA GTO INTEGRAL CALCULATION
                           -- RI-GTO INTEGRALS CHOSEN --
------------------------------------------------------------------------------
------------------------------------------------------------------------------
                   ___                                                        
                  /   \      - P O W E R E D   B Y -                         
                 /     \                                                     
                 |  |  |   _    _      __       _____    __    __             
                 |  |  |  | |  | |    /  \     |  _  \  |  |  /  |          
                  \  \/   | |  | |   /    \    | | | |  |  | /  /          
                 / \  \   | |__| |  /  /\  \   | |_| |  |  |/  /          
                |  |  |   |  __  | /  /__\  \  |    /   |      \           
                |  |  |   | |  | | |   __   |  |    \   |  |\   \          
                \     /   | |  | | |  |  |  |  | |\  \  |  | \   \       
                 \___/    |_|  |_| |__|  |__|  |_| \__\ |__|  \__/        
                                                                              
                      - O R C A' S   B I G   F R I E N D -                    
                                      &                                       
                       - I N T E G R A L  F E E D E R -                       
                                                                              
 v1 FN, 2020, v2 2021                                                         
------------------------------------------------------------------------------


Reading SHARK input file pbeh-3c.SHARKINP.tmp ... ok
----------------------
SHARK INTEGRAL PACKAGE
----------------------

Number of atoms                             ...     14
Number of basis functions                   ...    106
Number of shells                            ...     58
Maximum angular momentum                    ...      2
Integral batch strategy                     ... SHARK/LIBINT Hybrid
RI-J (if used) integral strategy            ... SPLIT-RIJ (Revised 2003 algorithm where possible)
Printlevel                                  ...      1
Contraction scheme used                     ... SEGMENTED contraction
Coulomb Range Separation                    ... NOT USED
Exchange Range Separation                   ... NOT USED
Finite Nucleus Model                        ... NOT USED
Auxiliary Coulomb fitting basis             ... AVAILABLE
   # of basis functions in Aux-J            ...    382
   # of shells in Aux-J                     ...    130
   Maximum angular momentum in Aux-J        ...      4
Auxiliary J/K fitting basis                 ... NOT available
Auxiliary Correlation fitting basis         ... NOT available
Auxiliary 'external' fitting basis          ... NOT available
Integral threshold                          ...     2.500000e-11
Primitive cut-off                           ...     2.500000e-12
Primitive pair pre-selection threshold      ...     2.500000e-12

Calculating pre-screening integrals         ... done (  0.1 sec) Dimension = 58
Organizing shell pair data                  ... done (  0.4 sec)
Shell pair information
Total number of shell pairs                 ...      1711
Shell pairs after pre-screening             ...      1574
Total number of primitive shell pairs       ...      6207
Primitive shell pairs kept                  ...      4169
          la=0 lb=0:    712 shell pairs
          la=1 lb=0:    470 shell pairs
          la=1 lb=1:     78 shell pairs
          la=2 lb=0:    222 shell pairs
          la=2 lb=1:     72 shell pairs
          la=2 lb=2:     20 shell pairs

Calculating one electron integrals          ... done (  0.0 sec)
Calculating RI/J V-Matrix + Cholesky decomp.... done (  0.9 sec)
Calculating Nuclear repulsion               ... done (  0.0 sec) ENN=    243.791722722486 Eh

SHARK setup successfully completed in   2.4 seconds

Maximum memory used throughout the entire GTOINT-calculation: 10.3 MB


           ************************************************************
           *        Program running with 4 parallel MPI-processes     *
           *              working on a common directory               *
           ************************************************************
-------------------------------------------------------------------------------
                                 ORCA SCF
-------------------------------------------------------------------------------

------------
SCF SETTINGS
------------
Hamiltonian:
 Density Functional     Method          .... DFT(GTOs)
 Exchange Functional    Exchange        .... PBE
   PBE kappa parameter   XKappa         ....  1.024500
   PBE mue parameter    XMuePBE         ....  0.123457
 Correlation Functional Correlation     .... PBE
   PBE beta parameter  CBetaPBE         ....  0.030000
 LDA part of GGA corr.  LDAOpt          .... PW91-LDA
 Gradients option       PostSCFGGA      .... off
 Hybrid DFT is turned on
   Fraction HF Exchange ScalHFX         ....  0.420000
   Scaling of DF-GGA-X  ScalDFX         ....  0.580000
   Scaling of DF-GGA-C  ScalDFC         ....  1.000000
   Scaling of DF-LDA-C  ScalLDAC        ....  1.000000
   Perturbative correction              ....  0.000000
   Density functional embedding theory  .... OFF
 RI-approximation to the Coulomb term is turned on
   Number of AuxJ basis functions       .... 382
   RIJ-ON(X) (HFX calculated with O(N)) .... on
   Number of AuxJ basis functions       .... 382
   RIJ-COSX (HFX calculated with COS-X)).... on


General Settings:
 Integral files         IntName         .... pbeh-3c
 Hartree-Fock type      HFTyp           .... RHF
 Total Charge           Charge          ....    0
 Multiplicity           Mult            ....    1
 Number of Electrons    NEL             ....   48
 Basis Dimension        Dim             ....  106
 Nuclear Repulsion      ENuc            ....    243.7917227225 Eh

Convergence Acceleration:
 DIIS                   CNVDIIS         .... on
   Start iteration      DIISMaxIt       ....    12
   Startup error        DIISStart       ....  0.200000
   # of expansion vecs  DIISMaxEq       ....     5
   Bias factor          DIISBfac        ....   1.050
   Max. coefficient     DIISMaxC        ....  10.000
 Trust-Rad. Augm. Hess. CNVTRAH         .... auto
   Auto Start mean grad. ratio tolernc. ....  1.125000
   Auto Start start iteration           ....    20
   Auto Start num. interpolation iter.  ....    10
   Max. Number of Micro iterations      ....    16
   Max. Number of Macro iterations      .... Maxiter - #DIIS iter
   Number of Davidson start vectors     ....     2
   Converg. threshold I  (grad. norm)   ....   1.000e-05
   Converg. threshold II (energy diff.) ....   1.000e-08
   Grad. Scal. Fac. for Micro threshold ....   0.100
   Minimum threshold for Micro iter.    ....   0.010
   NR start threshold (gradient norm)   ....   0.001
   Initial trust radius                 ....   0.400
   Minimum AH scaling param. (alpha)    ....   1.000
   Maximum AH scaling param. (alpha)    .... 1000.000
   Orbital update algorithm             .... Taylor
   White noise on init. David. guess    .... on
   Maximum white noise                  ....   0.010
   Quad. conv. algorithm                .... NR
   COSX micro iterations for RIJONX calc.... off
 SOSCF                  CNVSOSCF        .... on
   Start iteration      SOSCFMaxIt      ....   150
   Startup grad/error   SOSCFStart      ....  0.003300
 Level Shifting         CNVShift        .... on
   Level shift para.    LevelShift      ....    0.2500
   Turn off err/grad.   ShiftErr        ....    0.0010
 Zerner damping         CNVZerner       .... off
 Static damping         CNVDamp         .... on
   Fraction old density DampFac         ....    0.7000
   Max. Damping (<1)    DampMax         ....    0.9800
   Min. Damping (>=0)   DampMin         ....    0.0000
   Turn off err/grad.   DampErr         ....    0.1000
 Fernandez-Rico         CNVRico         .... off

SCF Procedure:
 Maximum # iterations   MaxIter         ....   125
 SCF integral mode      SCFMode         .... Direct
   Integral package                     .... SHARK and LIBINT hybrid scheme
 Reset frequency        DirectResetFreq ....    20
 Integral Threshold     Thresh          ....  2.500e-11 Eh
 Primitive CutOff       TCut            ....  2.500e-12 Eh

Convergence Tolerance:
 Convergence Check Mode ConvCheckMode   .... Total+1el-Energy
 Convergence forced     ConvForced      .... 0
 Energy Change          TolE            ....  1.000e-08 Eh
 1-El. energy change                    ....  1.000e-05 Eh
 Orbital Gradient       TolG            ....  1.000e-05
 Orbital Rotation angle TolX            ....  1.000e-05
 DIIS Error             TolErr          ....  5.000e-07


Diagonalization of the overlap matrix:
Smallest eigenvalue                        ... 4.943e-03
Time for diagonalization                   ...    0.002 sec
Threshold for overlap eigenvalues          ... 1.000e-08
Number of eigenvalues below threshold      ... 0
Time for construction of square roots      ...    0.004 sec
Total time needed                          ...    0.006 sec

--------------------------------
INITIAL GUESS: MINIMAL BASIS EHT
--------------------------------
The minimal basis has 38 functions
EHT matrix was diagonalized
Basis set overlap was calculated now projecting the orbitals
Using GuessMode=FMatrix for the initial guess
C*T matrix was formed
Effective Fockian was calculated
Effective Fockian was diagonalized
Initial density was built
                      ------------------
                      INITIAL GUESS DONE
                      ------------------
-------------------
DFT GRID GENERATION
-------------------

General Integration Accuracy     IntAcc      ... 4.959
Radial Grid Type                 RadialGrid  ... OptM3 with GC (2021)
Angular Grid (max. ang.)         AngularGrid ... 6 (Lebedev-590)
Angular grid pruning method      GridPruning ... 4 (adaptive)
Weight generation scheme         WeightScheme... Becke
Basis function cutoff            BFCut       ... 1.0000e-11
Integration weight cutoff        WCut        ... 1.0000e-14
Angular grids for H and He will be reduced by one unit
Partially contracted basis set               ... off
Rotationally invariant grid construction     ... off

Total number of grid points                  ...   156795
Total number of batches                      ...     2458
Average number of points per batch           ...       63
Average number of grid points per atom       ...    11200
Time for grid setup =    3.459 sec

--------------------
COSX GRID GENERATION
--------------------

GRIDX 1
-------
General Integration Accuracy     IntAcc      ... 4.020
Radial Grid Type                 RadialGrid  ... OptM3 with GC (2021)
Angular Grid (max. ang.)         AngularGrid ... 2 (Lebedev-110)
Angular grid pruning method      GridPruning ... 4 (adaptive)
Weight generation scheme         WeightScheme... Becke
Basis function cutoff            BFCut       ... 1.0000e-11
Integration weight cutoff        WCut        ... 1.0000e-14
Angular grids for H and He will be reduced by one unit
Partially contracted basis set               ... on
Rotationally invariant grid construction     ... off

Total number of grid points                  ...    17116
Total number of batches                      ...      275
Average number of points per batch           ...       62
Average number of grid points per atom       ...     1223
UseSFitting                                  ... on

GRIDX 2
-------
General Integration Accuracy     IntAcc      ... 4.338
Radial Grid Type                 RadialGrid  ... OptM3 with GC (2021)
Angular Grid (max. ang.)         AngularGrid ... 3 (Lebedev-194)
Angular grid pruning method      GridPruning ... 4 (adaptive)
Weight generation scheme         WeightScheme... Becke
Basis function cutoff            BFCut       ... 1.0000e-11
Integration weight cutoff        WCut        ... 1.0000e-14
Angular grids for H and He will be reduced by one unit
Partially contracted basis set               ... on
Rotationally invariant grid construction     ... off

Total number of grid points                  ...    37636
Total number of batches                      ...      595
Average number of points per batch           ...       63
Average number of grid points per atom       ...     2688
UseSFitting                                  ... on

GRIDX 3
-------
General Integration Accuracy     IntAcc      ... 4.871
Radial Grid Type                 RadialGrid  ... OptM3 with GC (2021)
Angular Grid (max. ang.)         AngularGrid ... 4 (Lebedev-302)
Angular grid pruning method      GridPruning ... 4 (adaptive)
Weight generation scheme         WeightScheme... Becke
Basis function cutoff            BFCut       ... 1.0000e-11
Integration weight cutoff        WCut        ... 1.0000e-14
Angular grids for H and He will be reduced by one unit
Partially contracted basis set               ... on
Rotationally invariant grid construction     ... off

Total number of grid points                  ...    73301
Total number of batches                      ...     1152
Average number of points per batch           ...       63
Average number of grid points per atom       ...     5236
UseSFitting                                  ... on

Time for X-Grid setup             =    3.694 sec

--------------
SCF ITERATIONS
--------------
ITER       Energy         Delta-E        Max-DP      RMS-DP      [F,P]     Damp
               ***  Starting incremental Fock matrix formation  ***
  0   -306.0790628924   0.000000000000 0.18572143  0.00671459  0.5386166 0.7000
  1   -306.4546405792  -0.375577686784 0.10261310  0.00375701  0.2799423 0.7000
                               ***Turning on DIIS***
  2   -306.6369211668  -0.182280587646 0.04386119  0.00200594  0.1974007 0.7000
  3   -306.7620941048  -0.125172938008 0.03228619  0.00133126  0.1385712 0.7000
  4   -306.8518335857  -0.089739480899 0.06744627  0.00318336  0.0971067 0.0000
  5   -307.0659252140  -0.214091628313 0.01134288  0.00031308  0.0117912 0.0000
  6   -307.0661696125  -0.000244398464 0.00378101  0.00010229  0.0067250 0.0000
                      *** Initiating the SOSCF procedure ***
                           *** Shutting down DIIS ***
                      *** Re-Reading the Fockian *** 
                      *** Removing any level shift *** 
ITER      Energy       Delta-E        Grad      Rot      Max-DP    RMS-DP
  7   -307.06625955  -0.0000899419  0.000707  0.000707  0.001309  0.000041
               *** Restarting incremental Fock matrix formation ***
  8   -307.06625285   0.0000067011  0.000351  0.000521  0.001094  0.000041
  9   -307.06625287  -0.0000000193  0.000568  0.000623  0.000786  0.000019
 10   -307.06625544  -0.0000025708  0.000028  0.000032  0.000119  0.000004
 11   -307.06625545  -0.0000000062  0.000024  0.000018  0.000054  0.000002
 12   -307.06625547  -0.0000000208  0.000004  0.000006  0.000009  0.000000
 13   -307.06625547  -0.0000000006  0.000003  0.000002  0.000005  0.000000
                  ***Gradient check signals convergence***
              ***Rediagonalizing the Fockian in SOSCF/NRSCF***

               *****************************************************
               *                     SUCCESS                       *
               *           SCF CONVERGED AFTER  14 CYCLES          *
               *****************************************************

Old exchange energy                            =    -16.790153446 Eh
New exchange energy                            =    -16.790159340 Eh
Exchange energy change after final integration =     -0.000005894 Eh
Total energy after final integration           =   -307.066261365 Eh
Final COS-X integration done in                =     2.334 sec

----------------
TOTAL SCF ENERGY
----------------

Total Energy       :         -307.06626137 Eh           -8355.69777 eV

Components:
Nuclear Repulsion  :          243.79172272 Eh            6633.91004 eV
Electronic Energy  :         -550.85798409 Eh          -14989.60780 eV
One Electron Energy:         -900.90264979 Eh          -24514.80741 eV
Two Electron Energy:          350.04466571 Eh            9525.19961 eV
Max COSX asymmetry :            0.00000244 Eh               0.00007 eV

Virial components:
Potential Energy   :         -611.67938143 Eh          -16644.64217 eV
Kinetic Energy     :          304.61312006 Eh            8288.94440 eV
Virial Ratio       :            2.00805330


DFT components:
N(Alpha)           :       23.999999276630 electrons
N(Beta)            :       23.999999276630 electrons
N(Total)           :       47.999998553260 electrons
E(X)               :      -22.327255052943 Eh       
E(C)               :       -2.091910398917 Eh       
E(XC)              :      -24.419165451861 Eh       
DFET-embed. en.    :        0.000000000000 Eh       

---------------
SCF CONVERGENCE
---------------

  Last Energy change         ...   -1.8093e-10  Tolerance :   1.0000e-08
  Last MAX-Density change    ...    9.9920e-16  Tolerance :   1.0000e-07
  Last RMS-Density change    ...    5.1164e-17  Tolerance :   5.0000e-09
  Last Orbital Gradient      ...    2.8208e-07  Tolerance :   1.0000e-05
  Last Orbital Rotation      ...    4.4578e-07  Tolerance :   1.0000e-05

             **** THE GBW FILE WAS UPDATED (pbeh-3c.gbw) ****
             **** DENSITY pbeh-3c.scfp WAS UPDATED ****
             **** ENERGY FILE WAS UPDATED (pbeh-3c.en.tmp) ****
             **** THE GBW FILE WAS UPDATED (pbeh-3c.gbw) ****
             **** DENSITY pbeh-3c.scfp WAS UPDATED ****
----------------
ORBITAL ENERGIES
----------------

  NO   OCC          E(Eh)            E(eV) 
   0   2.0000     -19.538994      -531.6831 
   1   2.0000     -19.483920      -530.1844 
   2   2.0000     -10.576574      -287.8032 
   3   2.0000     -10.493164      -285.5335 
   4   2.0000     -10.456550      -284.5372 
   5   2.0000     -10.433130      -283.8999 
   6   2.0000      -1.208127       -32.8748 
   7   2.0000      -1.118164       -30.4268 
   8   2.0000      -0.878073       -23.8936 
   9   2.0000      -0.804734       -21.8979 
  10   2.0000      -0.719046       -19.5662 
  11   2.0000      -0.625449       -17.0193 
  12   2.0000      -0.568993       -15.4831 
  13   2.0000      -0.552192       -15.0259 
  14   2.0000      -0.537161       -14.6169 
  15   2.0000      -0.507648       -13.8138 
  16   2.0000      -0.487987       -13.2788 
  17   2.0000      -0.441312       -12.0087 
  18   2.0000      -0.432652       -11.7731 
  19   2.0000      -0.427227       -11.6254 
  20   2.0000      -0.409902       -11.1540 
  21   2.0000      -0.398128       -10.8336 
  22   2.0000      -0.355885        -9.6841 
  23   2.0000      -0.331431        -9.0187 
  24   0.0000       0.045236         1.2309 
  25   0.0000       0.141841         3.8597 
  26   0.0000       0.152692         4.1550 
  27   0.0000       0.174098         4.7374 
  28   0.0000       0.196313         5.3420 
  29   0.0000       0.199918         5.4401 
  30   0.0000       0.205339         5.5876 
  31   0.0000       0.219172         5.9640 
  32   0.0000       0.220947         6.0123 
  33   0.0000       0.247153         6.7254 
  34   0.0000       0.256325         6.9750 
  35   0.0000       0.273744         7.4490 
  36   0.0000       0.341320         9.2878 
  37   0.0000       0.390875        10.6362 
  38   0.0000       0.490179        13.3385 
  39   0.0000       0.497039        13.5251 
  40   0.0000       0.523509        14.2454 
  41   0.0000       0.527561        14.3557 
  42   0.0000       0.562729        15.3126 
  43   0.0000       0.571876        15.5615 
  44   0.0000       0.576090        15.6762 
  45   0.0000       0.646050        17.5799 
  46   0.0000       0.670198        18.2370 
  47   0.0000       0.701642        19.0926 
  48   0.0000       0.709387        19.3034 
  49   0.0000       0.731730        19.9114 
  50   0.0000       0.837260        22.7830 
  51   0.0000       0.949497        25.8371 
  52   0.0000       0.965161        26.2634 
  53   0.0000       0.974051        26.5053 
  54   0.0000       0.984015        26.7764 
  55   0.0000       1.013839        27.5879 
  56   0.0000       1.020738        27.7757 
  57   0.0000       1.031166        28.0594 
  58   0.0000       1.047795        28.5120 
  59   0.0000       1.052733        28.6463 
  60   0.0000       1.068855        29.0850 
  61   0.0000       1.101679        29.9782 
  62   0.0000       1.143358        31.1124 
  63   0.0000       1.188328        32.3361 
  64   0.0000       1.211230        32.9592 
  65   0.0000       1.309100        35.6224 
  66   0.0000       1.411117        38.3984 
  67   0.0000       1.434431        39.0328 
  68   0.0000       1.457099        39.6497 
  69   0.0000       1.544631        42.0315 
  70   0.0000       1.579929        42.9921 
  71   0.0000       1.605709        43.6936 
  72   0.0000       1.686863        45.9019 
  73   0.0000       1.811748        49.3002 
  74   0.0000       1.831609        49.8406 
  75   0.0000       1.854238        50.4564 
  76   0.0000       1.916082        52.1392 
  77   0.0000       1.943896        52.8961 
  78   0.0000       1.990304        54.1589 
  79   0.0000       1.996729        54.3338 
  80   0.0000       2.054685        55.9108 
  81   0.0000       2.088629        56.8345 
  82   0.0000       2.123402        57.7807 
  83   0.0000       2.147558        58.4380 
  84   0.0000       2.153220        58.5921 
  85   0.0000       2.236217        60.8506 
  86   0.0000       2.287309        62.2408 
  87   0.0000       2.354230        64.0619 
  88   0.0000       2.376098        64.6569 
  89   0.0000       2.378121        64.7120 
  90   0.0000       2.412049        65.6352 
  91   0.0000       2.444620        66.5215 
  92   0.0000       2.521675        68.6183 
  93   0.0000       2.565156        69.8014 
  94   0.0000       2.729115        74.2630 
  95   0.0000       2.754945        74.9659 
  96   0.0000       2.800852        76.2151 
  97   0.0000       2.961425        80.5845 
  98   0.0000       3.097223        84.2797 
  99   0.0000       3.217363        87.5489 
 100   0.0000      13.608267       370.2998 
 101   0.0000      13.736093       373.7781 
 102   0.0000      13.887099       377.8872 
 103   0.0000      14.083453       383.2302 
 104   0.0000      25.643882       697.8055 
 105   0.0000      25.749817       700.6881 

                    ********************************
                    * MULLIKEN POPULATION ANALYSIS *
                    ********************************

-----------------------
MULLIKEN ATOMIC CHARGES
-----------------------
   0 C :   -0.636038
   1 H :    0.218657
   2 H :    0.234023
   3 H :    0.228982
   4 C :   -0.549542
   5 H :    0.252493
   6 H :    0.251331
   7 C :    0.582512
   8 O :   -0.401397
   9 O :   -0.467312
  10 C :   -0.390445
  11 H :    0.224646
  12 H :    0.225756
  13 H :    0.226335
Sum of atomic charges:   -0.0000000

--------------------------------
MULLIKEN REDUCED ORBITAL CHARGES
--------------------------------
  0 C s       :     3.380660  s :     3.380660
      pz      :     1.090712  p :     3.219176
      px      :     0.999684
      py      :     1.128779
      dz2     :     0.009912  d :     0.036202
      dxz     :     0.006538
      dyz     :     0.004342
      dx2y2   :     0.004362
      dxy     :     0.011048
  1 H s       :     0.781343  s :     0.781343
  2 H s       :     0.765977  s :     0.765977
  3 H s       :     0.771018  s :     0.771018
  4 C s       :     3.367195  s :     3.367195
      pz      :     1.123411  p :     3.141134
      px      :     0.998038
      py      :     1.019686
      dz2     :     0.010757  d :     0.041212
      dxz     :     0.006727
      dyz     :     0.005472
      dx2y2   :     0.004860
      dxy     :     0.013396
  5 H s       :     0.747507  s :     0.747507
  6 H s       :     0.748669  s :     0.748669
  7 C s       :     2.971191  s :     2.971191
      pz      :     0.731312  p :     2.314155
      px      :     0.727533
      py      :     0.855310
      dz2     :     0.014502  d :     0.132143
      dxz     :     0.018782
      dyz     :     0.021599
      dx2y2   :     0.038761
      dxy     :     0.038500
  8 O s       :     3.768469  s :     3.768469
      pz      :     1.459332  p :     4.602377
      px      :     1.710730
      py      :     1.432315
      dz2     :     0.004280  d :     0.030551
      dxz     :     0.001350
      dyz     :     0.009791
      dx2y2   :     0.007185
      dxy     :     0.007944
  9 O s       :     3.796429  s :     3.796429
      pz      :     1.705424  p :     4.639678
      px      :     1.342451
      py      :     1.591803
      dz2     :     0.004677  d :     0.031205
      dxz     :     0.006050
      dyz     :     0.003885
      dx2y2   :     0.007745
      dxy     :     0.008848
 10 C s       :     3.339074  s :     3.339074
      pz      :     1.144835  p :     2.994432
      px      :     0.980919
      py      :     0.868678
      dz2     :     0.007717  d :     0.056940
      dxz     :     0.009190
      dyz     :     0.014009
      dx2y2   :     0.009254
      dxy     :     0.016769
 11 H s       :     0.775354  s :     0.775354
 12 H s       :     0.774244  s :     0.774244
 13 H s       :     0.773665  s :     0.773665


                     *******************************
                     * LOEWDIN POPULATION ANALYSIS *
                     *******************************

----------------------
LOEWDIN ATOMIC CHARGES
----------------------
   0 C :   -0.357398
   1 H :    0.128562
   2 H :    0.137941
   3 H :    0.135321
   4 C :   -0.278794
   5 H :    0.151894
   6 H :    0.149840
   7 C :    0.154138
   8 O :   -0.226670
   9 O :   -0.197591
  10 C :   -0.178428
  11 H :    0.127402
  12 H :    0.126732
  13 H :    0.127050

-------------------------------
LOEWDIN REDUCED ORBITAL CHARGES
-------------------------------
  0 C s       :     2.954690  s :     2.954690
      pz      :     1.122492  p :     3.334891
      px      :     1.079613
      py      :     1.132787
      dz2     :     0.017708  d :     0.067818
      dxz     :     0.013757
      dyz     :     0.007245
      dx2y2   :     0.009244
      dxy     :     0.019863
  1 H s       :     0.871438  s :     0.871438
  2 H s       :     0.862059  s :     0.862059
  3 H s       :     0.864679  s :     0.864679
  4 C s       :     2.923136  s :     2.923136
      pz      :     1.113662  p :     3.271950
      px      :     1.079662
      py      :     1.078627
      dz2     :     0.019578  d :     0.083707
      dxz     :     0.014252
      dyz     :     0.010359
      dx2y2   :     0.011672
      dxy     :     0.027846
  5 H s       :     0.848106  s :     0.848106
  6 H s       :     0.850160  s :     0.850160
  7 C s       :     2.838153  s :     2.838153
      pz      :     0.781948  p :     2.711958
      px      :     0.879959
      py      :     1.050051
      dz2     :     0.030917  d :     0.295750
      dxz     :     0.043098
      dyz     :     0.045263
      dx2y2   :     0.086332
      dxy     :     0.090140
  8 O s       :     3.524039  s :     3.524039
      pz      :     1.450887  p :     4.646465
      px      :     1.685232
      py      :     1.510347
      dz2     :     0.007270  d :     0.056165
      dxz     :     0.002533
      dyz     :     0.015474
      dx2y2   :     0.016641
      dxy     :     0.014248
  9 O s       :     3.455876  s :     3.455876
      pz      :     1.691525  p :     4.673710
      px      :     1.383571
      py      :     1.598614
      dz2     :     0.008049  d :     0.068005
      dxz     :     0.014366
      dyz     :     0.007318
      dx2y2   :     0.018837
      dxy     :     0.019434
 10 C s       :     2.966751  s :     2.966751
      pz      :     1.145365  p :     3.100310
      px      :     1.010957
      py      :     0.943988
      dz2     :     0.014295  d :     0.111367
      dxz     :     0.016260
      dyz     :     0.026771
      dx2y2   :     0.019638
      dxy     :     0.034404
 11 H s       :     0.872598  s :     0.872598
 12 H s       :     0.873268  s :     0.873268
 13 H s       :     0.872950  s :     0.872950


                      *****************************
                      * MAYER POPULATION ANALYSIS *
                      *****************************

  NA   - Mulliken gross atomic population
  ZA   - Total nuclear charge
  QA   - Mulliken gross atomic charge
  VA   - Mayer's total valence
  BVA  - Mayer's bonded valence
  FA   - Mayer's free valence

  ATOM       NA         ZA         QA         VA         BVA        FA
  0 C      6.6360     6.0000    -0.6360     3.7257     3.7257     0.0000
  1 H      0.7813     1.0000     0.2187     0.9135     0.9135    -0.0000
  2 H      0.7660     1.0000     0.2340     0.9096     0.9096     0.0000
  3 H      0.7710     1.0000     0.2290     0.9103     0.9103    -0.0000
  4 C      6.5495     6.0000    -0.5495     3.6954     3.6954     0.0000
  5 H      0.7475     1.0000     0.2525     0.8949     0.8949    -0.0000
  6 H      0.7487     1.0000     0.2513     0.8966     0.8966     0.0000
  7 C      5.4175     6.0000     0.5825     3.9838     3.9838    -0.0000
  8 O      8.4014     8.0000    -0.4014     2.1973     2.1973    -0.0000
  9 O      8.4673     8.0000    -0.4673     2.0847     2.0847     0.0000
 10 C      6.3904     6.0000    -0.3904     3.6881     3.6881     0.0000
 11 H      0.7754     1.0000     0.2246     0.9135     0.9135     0.0000
 12 H      0.7742     1.0000     0.2258     0.9089     0.9089     0.0000
 13 H      0.7737     1.0000     0.2263     0.9088     0.9088     0.0000

  Mayer bond orders larger than 0.100000
B(  0-C ,  1-H ) :   0.9262 B(  0-C ,  2-H ) :   0.9228 B(  0-C ,  3-H ) :   0.9260 
B(  0-C ,  4-C ) :   0.9793 B(  4-C ,  5-H ) :   0.9006 B(  4-C ,  6-H ) :   0.9018 
B(  4-C ,  7-C ) :   0.9275 B(  7-C ,  8-O ) :   2.0108 B(  7-C ,  9-O ) :   1.0875 
B(  9-O , 10-C ) :   0.8994 B( 10-C , 11-H ) :   0.9228 B( 10-C , 12-H ) :   0.9133 
B( 10-C , 13-H ) :   0.9130 

-------
TIMINGS
-------

Total SCF time: 0 days 0 hours 1 min 20 sec 

Total time                  ....      80.080 sec
Sum of individual times     ....      72.961 sec  ( 91.1%)

Fock matrix formation       ....      60.846 sec  ( 76.0%)
  Split-RI-J                ....       6.688 sec  ( 11.0% of F)
  Chain of spheres X        ....      19.407 sec  ( 31.9% of F)
  XC integration            ....      18.277 sec  ( 30.0% of F)
    Basis function eval.    ....       2.459 sec  ( 13.5% of XC)
    Density eval.           ....       1.684 sec  (  9.2% of XC)
    XC-Functional eval.     ....       1.438 sec  (  7.9% of XC)
    XC-Potential eval.      ....       0.867 sec  (  4.7% of XC)
Diagonalization             ....       0.772 sec  (  1.0%)
Density matrix formation    ....       0.162 sec  (  0.2%)
Population analysis         ....       1.206 sec  (  1.5%)
Initial guess               ....       0.040 sec  (  0.0%)
Orbital Transformation      ....       0.000 sec  (  0.0%)
Orbital Orthonormalization  ....       0.000 sec  (  0.0%)
DIIS solution               ....       2.262 sec  (  2.8%)
SOSCF solution              ....       0.522 sec  (  0.7%)
Grid generation             ....       7.153 sec  (  8.9%)

Maximum memory used throughout the entire SCF-calculation: 51.8 MB


-------------------------------------------------------------------------------
                          DFT DISPERSION CORRECTION                            
                                                                               
                              DFTD3 V3.1  Rev 1                                
                          USING Becke-Johnson damping                          
-------------------------------------------------------------------------------
The PBEh-3c composite method is recognized
Using three-body term ABC
Active option DFTDOPT                   ...         4   

molecular C6(AA) [au] = 1486.718717 


            DFT-D V3
 parameters
 s6 scaling factor         :     1.0000 
 a1 scaling factor         :     0.4860 
 s8 scaling factor         :     0.0000 
 a2 scaling factor         :     4.5000 
 Damping factor alpha9(ATM):    16.0000 
 ad hoc parameters k1-k3   :    16.0000     1.3333    -4.0000 

 Edisp/kcal,au: -3.341340210629  -0.005324763995 
 E6   /kcal   :  -3.344270602 
 E8   /kcal   :  -0.000000000 
 E6(ABC)      :   0.002930391 
 % E8         :   0.000000000 
 % E6(ABC)    :  -0.087701064 

-------------------------   ----------------
Dispersion correction           -0.005324764
-------------------------   ----------------

------------------   -----------------
gCP correction             0.029648624
------------------   -----------------

-------------------------   --------------------
FINAL SINGLE POINT ENERGY      -307.041937505488
-------------------------   --------------------


                            ***************************************
                            *     ORCA property calculations      *
                            ***************************************

                                    ---------------------
                                    Active property flags
                                    ---------------------
   (+) Dipole Moment


------------------------------------------------------------------------------
                       ORCA ELECTRIC PROPERTIES CALCULATION
------------------------------------------------------------------------------

Dipole Moment Calculation                       ... on
Quadrupole Moment Calculation                   ... off
Polarizability Calculation                      ... off
GBWName                                         ... pbeh-3c.gbw
Electron density                                ... pbeh-3c.scfp
The origin for moment calculation is the CENTER OF MASS  = (-0.273421,  0.360652  0.075313)

-------------
DIPOLE MOMENT
-------------
                                X             Y             Z
Electronic contribution:     -2.11655       1.89023       0.76307
Nuclear contribution   :      1.77501      -2.38274      -0.49159
                        -----------------------------------------
Total Dipole Moment    :     -0.34155      -0.49251       0.27148
                        -----------------------------------------
Magnitude (a.u.)       :      0.65797
Magnitude (Debye)      :      1.67241



--------------------
Rotational spectrum 
--------------------
 
Rotational constants in cm-1:     0.313394     0.070697     0.059668 
Rotational constants in MHz :  9395.328113  2119.443143  1788.804449 

 Dipole components along the rotational axes: 
x,y,z [a.u.] :     0.184097    -0.631667     0.004847 
x,y,z [Debye]:     0.467939    -1.605569     0.012321 

 

Timings for individual modules:

Sum of individual times         ...       84.285 sec (=   1.405 min)
GTO integral calculation        ...        3.137 sec (=   0.052 min)   3.7 %
SCF iterations                  ...       81.148 sec (=   1.352 min)  96.3 %
                             ****ORCA TERMINATED NORMALLY****
TOTAL RUN TIME: 0 days 0 hours 1 minutes 29 seconds 209 msec
