
                                 *****************
                                 * O   R   C   A *
                                 *****************

                                            #,                                       
                                            ###                                      
                                            ####                                     
                                            #####                                    
                                            ######                                   
                                           ########,                                 
                                     ,,################,,,,,                         
                               ,,#################################,,                 
                          ,,##########################################,,             
                       ,#########################################, ''#####,          
                    ,#############################################,,   '####,        
                  ,##################################################,,,,####,       
                ,###########''''           ''''###############################       
              ,#####''   ,,,,##########,,,,          '''####'''          '####       
            ,##' ,,,,###########################,,,                        '##       
           ' ,,###''''                  '''############,,,                           
         ,,##''                                '''############,,,,        ,,,,,,###''
      ,#''                                            '''#######################'''  
     '                                                          ''''####''''         
             ,#######,   #######,   ,#######,      ##                                
            ,#'     '#,  ##    ##  ,#'     '#,    #''#        ######   ,####,        
            ##       ##  ##   ,#'  ##            #'  '#       #        #'  '#        
            ##       ##  #######   ##           ,######,      #####,   #    #        
            '#,     ,#'  ##    ##  '#,     ,#' ,#      #,         ##   #,  ,#        
             '#######'   ##     ##  '#######'  #'      '#     #####' # '####'        



                  #######################################################
                  #                        -***-                        #
                  #          Department of theory and spectroscopy      #
                  #    Directorship and core code : Frank Neese         #
                  #        Max Planck Institute fuer Kohlenforschung    #
                  #                Kaiser Wilhelm Platz 1               #
                  #                 D-45470 Muelheim/Ruhr               #
                  #                      Germany                        #
                  #                                                     #
                  #                  All rights reserved                #
                  #                        -***-                        #
                  #######################################################


                         Program Version 5.0.3 -  RELEASE  -


 With contributions from (in alphabetic order):
   Daniel Aravena         : Magnetic Suceptibility
   Michael Atanasov       : Ab Initio Ligand Field Theory (pilot matlab implementation)
   Alexander A. Auer      : GIAO ZORA, VPT2 properties, NMR spectrum
   Ute Becker             : Parallelization
   Giovanni Bistoni       : ED, misc. LED, open-shell LED, HFLD
   Martin Brehm           : Molecular dynamics
   Dmytro Bykov           : SCF Hessian
   Vijay G. Chilkuri      : MRCI spin determinant printing, contributions to CSF-ICE
   Dipayan Datta          : RHF DLPNO-CCSD density
   Achintya Kumar Dutta   : EOM-CC, STEOM-CC
   Dmitry Ganyushin       : Spin-Orbit,Spin-Spin,Magnetic field MRCI
   Miquel Garcia          : C-PCM and meta-GGA Hessian, CC/C-PCM, Gaussian charge scheme
   Yang Guo               : DLPNO-NEVPT2, F12-NEVPT2, CIM, IAO-localization
   Andreas Hansen         : Spin unrestricted coupled pair/coupled cluster methods
   Benjamin Helmich-Paris : MC-RPA, TRAH-SCF, COSX integrals
   Lee Huntington         : MR-EOM, pCC
   Robert Izsak           : Overlap fitted RIJCOSX, COSX-SCS-MP3, EOM
   Marcus Kettner         : VPT2
   Christian Kollmar      : KDIIS, OOCD, Brueckner-CCSD(T), CCSD density, CASPT2, CASPT2-K
   Simone Kossmann        : Meta GGA functionals, TD-DFT gradient, OOMP2, MP2 Hessian
   Martin Krupicka        : Initial AUTO-CI
   Lucas Lang             : DCDCAS
   Marvin Lechner         : AUTO-CI (C++ implementation), FIC-MRCC
   Dagmar Lenk            : GEPOL surface, SMD
   Dimitrios Liakos       : Extrapolation schemes; Compound Job, initial MDCI parallelization
   Dimitrios Manganas     : Further ROCIS development; embedding schemes
   Dimitrios Pantazis     : SARC Basis sets
   Anastasios Papadopoulos: AUTO-CI, single reference methods and gradients
   Taras Petrenko         : DFT Hessian,TD-DFT gradient, ASA, ECA, R-Raman, ABS, FL, XAS/XES, NRVS
   Peter Pinski           : DLPNO-MP2, DLPNO-MP2 Gradient
   Christoph Reimann      : Effective Core Potentials
   Marius Retegan         : Local ZFS, SOC
   Christoph Riplinger    : Optimizer, TS searches, QM/MM, DLPNO-CCSD(T), (RO)-DLPNO pert. Triples
   Tobias Risthaus        : Range-separated hybrids, TD-DFT gradient, RPA, STAB
   Michael Roemelt        : Original ROCIS implementation
   Masaaki Saitow         : Open-shell DLPNO-CCSD energy and density
   Barbara Sandhoefer     : DKH picture change effects
   Avijit Sen             : IP-ROCIS
   Kantharuban Sivalingam : CASSCF convergence, NEVPT2, FIC-MRCI
   Bernardo de Souza      : ESD, SOC TD-DFT
   Georgi Stoychev        : AutoAux, RI-MP2 NMR, DLPNO-MP2 response
   Willem Van den Heuvel  : Paramagnetic NMR
   Boris Wezisla          : Elementary symmetry handling
   Frank Wennmohs         : Technical directorship


 We gratefully acknowledge several colleagues who have allowed us to
 interface, adapt or use parts of their codes:
   Stefan Grimme, W. Hujo, H. Kruse, P. Pracht,  : VdW corrections, initial TS optimization,
                  C. Bannwarth, S. Ehlert          DFT functionals, gCP, sTDA/sTD-DF
   Ed Valeev, F. Pavosevic, A. Kumar             : LibInt (2-el integral package), F12 methods
   Garnet Chan, S. Sharma, J. Yang, R. Olivares  : DMRG
   Ulf Ekstrom                                   : XCFun DFT Library
   Mihaly Kallay                                 : mrcc  (arbitrary order and MRCC methods)
   Jiri Pittner, Ondrej Demel                    : Mk-CCSD
   Frank Weinhold                                : gennbo (NPA and NBO analysis)
   Christopher J. Cramer and Donald G. Truhlar   : smd solvation model
   Lars Goerigk                                  : TD-DFT with DH, B97 family of functionals
   V. Asgeirsson, H. Jonsson                     : NEB implementation
   FAccTs GmbH                                   : IRC, NEB, NEB-TS, DLPNO-Multilevel, CI-OPT
                                                   MM, QMMM, 2- and 3-layer-ONIOM, Crystal-QMMM,
                                                   LR-CPCM, SF, NACMEs, symmetry and pop. for TD-DFT,
                                                   nearIR, NL-DFT gradient (VV10), updates on ESD,
                                                   ML-optimized integration grids
   S Lehtola, MJT Oliveira, MAL Marques          : LibXC Library
   Liviu Ungur et al                             : ANISO software


 Your calculation uses the libint2 library for the computation of 2-el integrals
 For citations please refer to: http://libint.valeyev.net

 Your ORCA version has been built with support for libXC version: 5.1.0
 For citations please refer to: https://tddft.org/programs/libxc/

 This ORCA versions uses:
   CBLAS   interface :  Fast vector & matrix operations
   LAPACKE interface :  Fast linear algebra routines
   SCALAPACK package :  Parallel linear algebra routines
   Shared memory     :  Shared parallel matrices
   BLAS/LAPACK       :  OpenBLAS 0.3.15  USE64BITINT DYNAMIC_ARCH NO_AFFINITY Haswell SINGLE_THREADED
        Core in use  :  Haswell
   Copyright (c) 2011-2014, The OpenBLAS Project




***************************************
The coordinates will be read from file: 15.xyz
***************************************


Your calculation utilizes the geometrical counterpoise correction gCP
Please cite in your paper:
H.Kruse, S. Grimme J.Chem.Phys., 136, (2012), 154101 
   

Your calculation utilizes the atom-pairwise dispersion correction
with the Becke-Johnson damping scheme (D3BJ)
Cite in your paper:
S.Grimme, S.Ehrlich, L.Goerigk, J Comput Chem, (2011), 32, 1456–1465 
S.Grimme, J.Antony, S.Ehrlich and H.Krieg, J.Chem.Phys., 132, (2010), 154104 
   

Your calculation employs the composite approach PBEh-3c.
Please cite in your paper:
S. Grimme, J. G. Brandenburg, C. Bannwarth, A. Hansen J.Chem.Phys., 143, (2015), 054107 
   

================================================================================

----- Orbital basis set information -----
Your calculation utilizes the basis: def2-mSVP

----- AuxJ basis set information -----
Your calculation utilizes the auxiliary basis: def2/J
   F. Weigend, Phys. Chem. Chem. Phys. 8, 1057 (2006).

================================================================================
                                        WARNINGS
                       Please study these warnings very carefully!
================================================================================


INFO   : the flag for use of the SHARK integral package has been found!

================================================================================
                                       INPUT FILE
================================================================================
NAME = pbeh-3c.inp
|  1> ! PBEh-3c def2/J TightSCF DefGrid3
|  2> 
|  3> %maxcore 60000
|  4> 
|  5> %pal
|  6> nprocs 4
|  7> end
|  8> 
|  9> *xyzfile 0 1 15.xyz
| 10> 
| 11>                          ****END OF INPUT****
================================================================================

                       ****************************
                       * Single Point Calculation *
                       ****************************

---------------------------------
CARTESIAN COORDINATES (ANGSTROEM)
---------------------------------
  N      0.000000    0.691283    0.000000
  N     -0.668891   -2.153071    0.000000
  F      0.756395    1.890287    0.000000
  H     -1.547845   -1.651341    0.000000
  H      0.376422    0.189509    0.800592
  H     -0.665161   -2.753873   -0.813407
  H      0.376422    0.189509   -0.800592
  H     -0.665161   -2.753873    0.813407

----------------------------
CARTESIAN COORDINATES (A.U.)
----------------------------
  NO LB      ZA    FRAG     MASS         X           Y           Z
   0 N     7.0000    0    14.007    0.000000    1.306336    0.000000
   1 N     7.0000    0    14.007   -1.264021   -4.068715    0.000000
   2 F     9.0000    0    18.998    1.429379    3.572125    0.000000
   3 H     1.0000    0     1.008   -2.925003   -3.120582    0.000000
   4 H     1.0000    0     1.008    0.711334    0.358120    1.512900
   5 H     1.0000    0     1.008   -1.256972   -5.204066   -1.537116
   6 H     1.0000    0     1.008    0.711334    0.358120   -1.512900
   7 H     1.0000    0     1.008   -1.256972   -5.204066    1.537116

--------------------------------
INTERNAL COORDINATES (ANGSTROEM)
--------------------------------
 N      0   0   0     0.000000000000     0.00000000     0.00000000
 N      1   0   0     2.921945387443     0.00000000     0.00000000
 F      1   2   0     1.417654396544   160.98758912     0.00000000
 H      2   1   3     1.012073676674    73.51462293   180.00000000
 H      1   2   4     1.017063527821    66.70096864   121.01303865
 H      2   1   3     1.011240774372   125.27506841   279.84558872
 H      1   2   6     1.017063527821    66.70096864   338.83255007
 H      2   1   3     1.011240774372   125.27506841    80.15441128

---------------------------
INTERNAL COORDINATES (A.U.)
---------------------------
 N      0   0   0     0.000000000000     0.00000000     0.00000000
 N      1   0   0     5.521676560541     0.00000000     0.00000000
 F      1   2   0     2.678978562018   160.98758912     0.00000000
 H      2   1   3     1.912542076264    73.51462293   180.00000000
 H      1   2   4     1.921971528382    66.70096864   121.01303865
 H      2   1   3     1.910968119018   125.27506841   279.84558872
 H      1   2   6     1.921971528382    66.70096864   338.83255007
 H      2   1   3     1.910968119018   125.27506841    80.15441128

---------------------
BASIS SET INFORMATION
---------------------
There are 3 groups of distinct atoms

 Group   1 Type N   : 8s4p1d contracted to 4s2p1d pattern {5111/31/1}
 Group   2 Type F   : 8s4p1d contracted to 4s2p1d pattern {5111/31/1}
 Group   3 Type H   : 4s contracted to 2s pattern {31}

Atom   0N    basis set group =>   1
Atom   1N    basis set group =>   1
Atom   2F    basis set group =>   2
Atom   3H    basis set group =>   3
Atom   4H    basis set group =>   3
Atom   5H    basis set group =>   3
Atom   6H    basis set group =>   3
Atom   7H    basis set group =>   3
---------------------------------
AUXILIARY/J BASIS SET INFORMATION
---------------------------------
There are 3 groups of distinct atoms

 Group   1 Type N   : 12s5p4d2f1g contracted to 6s4p3d1f1g pattern {711111/2111/211/2/1}
 Group   2 Type F   : 12s5p4d2f1g contracted to 6s4p3d1f1g pattern {711111/2111/211/2/1}
 Group   3 Type H   : 5s2p1d contracted to 3s1p1d pattern {311/2/1}

Atom   0N    basis set group =>   1
Atom   1N    basis set group =>   1
Atom   2F    basis set group =>   2
Atom   3H    basis set group =>   3
Atom   4H    basis set group =>   3
Atom   5H    basis set group =>   3
Atom   6H    basis set group =>   3
Atom   7H    basis set group =>   3


           ************************************************************
           *        Program running with 4 parallel MPI-processes     *
           *              working on a common directory               *
           ************************************************************
------------------------------------------------------------------------------
                           ORCA GTO INTEGRAL CALCULATION
                           -- RI-GTO INTEGRALS CHOSEN --
------------------------------------------------------------------------------
------------------------------------------------------------------------------
                   ___                                                        
                  /   \      - P O W E R E D   B Y -                         
                 /     \                                                     
                 |  |  |   _    _      __       _____    __    __             
                 |  |  |  | |  | |    /  \     |  _  \  |  |  /  |          
                  \  \/   | |  | |   /    \    | | | |  |  | /  /          
                 / \  \   | |__| |  /  /\  \   | |_| |  |  |/  /          
                |  |  |   |  __  | /  /__\  \  |    /   |      \           
                |  |  |   | |  | | |   __   |  |    \   |  |\   \          
                \     /   | |  | | |  |  |  |  | |\  \  |  | \   \       
                 \___/    |_|  |_| |__|  |__|  |_| \__\ |__|  \__/        
                                                                              
                      - O R C A' S   B I G   F R I E N D -                    
                                      &                                       
                       - I N T E G R A L  F E E D E R -                       
                                                                              
 v1 FN, 2020, v2 2021                                                         
------------------------------------------------------------------------------


Reading SHARK input file pbeh-3c.SHARKINP.tmp ... ok
----------------------
SHARK INTEGRAL PACKAGE
----------------------

Number of atoms                             ...      8
Number of basis functions                   ...     55
Number of shells                            ...     31
Maximum angular momentum                    ...      2
Integral batch strategy                     ... SHARK/LIBINT Hybrid
RI-J (if used) integral strategy            ... SPLIT-RIJ (Revised 2003 algorithm where possible)
Printlevel                                  ...      1
Contraction scheme used                     ... SEGMENTED contraction
Coulomb Range Separation                    ... NOT USED
Exchange Range Separation                   ... NOT USED
Finite Nucleus Model                        ... NOT USED
Auxiliary Coulomb fitting basis             ... AVAILABLE
   # of basis functions in Aux-J            ...    202
   # of shells in Aux-J                     ...     70
   Maximum angular momentum in Aux-J        ...      4
Auxiliary J/K fitting basis                 ... NOT available
Auxiliary Correlation fitting basis         ... NOT available
Auxiliary 'external' fitting basis          ... NOT available
Integral threshold                          ...     2.500000e-11
Primitive cut-off                           ...     2.500000e-12
Primitive pair pre-selection threshold      ...     2.500000e-12

Calculating pre-screening integrals         ... done (  0.0 sec) Dimension = 31
Organizing shell pair data                  ... done (  0.2 sec)
Shell pair information
Total number of shell pairs                 ...       496
Shell pairs after pre-screening             ...       451
Total number of primitive shell pairs       ...      1824
Primitive shell pairs kept                  ...      1292
          la=0 lb=0:    222 shell pairs
          la=1 lb=0:    124 shell pairs
          la=1 lb=1:     20 shell pairs
          la=2 lb=0:     62 shell pairs
          la=2 lb=1:     17 shell pairs
          la=2 lb=2:      6 shell pairs

Calculating one electron integrals          ... done (  0.0 sec)
Calculating RI/J V-Matrix + Cholesky decomp.... done (  0.1 sec)
Calculating Nuclear repulsion               ... done (  0.0 sec) ENN=     74.924107715974 Eh

SHARK setup successfully completed in   1.2 seconds

Maximum memory used throughout the entire GTOINT-calculation: 9.1 MB


           ************************************************************
           *        Program running with 4 parallel MPI-processes     *
           *              working on a common directory               *
           ************************************************************
-------------------------------------------------------------------------------
                                 ORCA SCF
-------------------------------------------------------------------------------

------------
SCF SETTINGS
------------
Hamiltonian:
 Density Functional     Method          .... DFT(GTOs)
 Exchange Functional    Exchange        .... PBE
   PBE kappa parameter   XKappa         ....  1.024500
   PBE mue parameter    XMuePBE         ....  0.123457
 Correlation Functional Correlation     .... PBE
   PBE beta parameter  CBetaPBE         ....  0.030000
 LDA part of GGA corr.  LDAOpt          .... PW91-LDA
 Gradients option       PostSCFGGA      .... off
 Hybrid DFT is turned on
   Fraction HF Exchange ScalHFX         ....  0.420000
   Scaling of DF-GGA-X  ScalDFX         ....  0.580000
   Scaling of DF-GGA-C  ScalDFC         ....  1.000000
   Scaling of DF-LDA-C  ScalLDAC        ....  1.000000
   Perturbative correction              ....  0.000000
   Density functional embedding theory  .... OFF
 RI-approximation to the Coulomb term is turned on
   Number of AuxJ basis functions       .... 202
   RIJ-ON(X) (HFX calculated with O(N)) .... on
   Number of AuxJ basis functions       .... 202
   RIJ-COSX (HFX calculated with COS-X)).... on


General Settings:
 Integral files         IntName         .... pbeh-3c
 Hartree-Fock type      HFTyp           .... RHF
 Total Charge           Charge          ....    0
 Multiplicity           Mult            ....    1
 Number of Electrons    NEL             ....   28
 Basis Dimension        Dim             ....   55
 Nuclear Repulsion      ENuc            ....     74.9241077160 Eh

Convergence Acceleration:
 DIIS                   CNVDIIS         .... on
   Start iteration      DIISMaxIt       ....    12
   Startup error        DIISStart       ....  0.200000
   # of expansion vecs  DIISMaxEq       ....     5
   Bias factor          DIISBfac        ....   1.050
   Max. coefficient     DIISMaxC        ....  10.000
 Trust-Rad. Augm. Hess. CNVTRAH         .... auto
   Auto Start mean grad. ratio tolernc. ....  1.125000
   Auto Start start iteration           ....    20
   Auto Start num. interpolation iter.  ....    10
   Max. Number of Micro iterations      ....    16
   Max. Number of Macro iterations      .... Maxiter - #DIIS iter
   Number of Davidson start vectors     ....     2
   Converg. threshold I  (grad. norm)   ....   1.000e-05
   Converg. threshold II (energy diff.) ....   1.000e-08
   Grad. Scal. Fac. for Micro threshold ....   0.100
   Minimum threshold for Micro iter.    ....   0.010
   NR start threshold (gradient norm)   ....   0.001
   Initial trust radius                 ....   0.400
   Minimum AH scaling param. (alpha)    ....   1.000
   Maximum AH scaling param. (alpha)    .... 1000.000
   Orbital update algorithm             .... Taylor
   White noise on init. David. guess    .... on
   Maximum white noise                  ....   0.010
   Quad. conv. algorithm                .... NR
   COSX micro iterations for RIJONX calc.... off
 SOSCF                  CNVSOSCF        .... on
   Start iteration      SOSCFMaxIt      ....   150
   Startup grad/error   SOSCFStart      ....  0.003300
 Level Shifting         CNVShift        .... on
   Level shift para.    LevelShift      ....    0.2500
   Turn off err/grad.   ShiftErr        ....    0.0010
 Zerner damping         CNVZerner       .... off
 Static damping         CNVDamp         .... on
   Fraction old density DampFac         ....    0.7000
   Max. Damping (<1)    DampMax         ....    0.9800
   Min. Damping (>=0)   DampMin         ....    0.0000
   Turn off err/grad.   DampErr         ....    0.1000
 Fernandez-Rico         CNVRico         .... off

SCF Procedure:
 Maximum # iterations   MaxIter         ....   125
 SCF integral mode      SCFMode         .... Direct
   Integral package                     .... SHARK and LIBINT hybrid scheme
 Reset frequency        DirectResetFreq ....    20
 Integral Threshold     Thresh          ....  2.500e-11 Eh
 Primitive CutOff       TCut            ....  2.500e-12 Eh

Convergence Tolerance:
 Convergence Check Mode ConvCheckMode   .... Total+1el-Energy
 Convergence forced     ConvForced      .... 0
 Energy Change          TolE            ....  1.000e-08 Eh
 1-El. energy change                    ....  1.000e-05 Eh
 Orbital Gradient       TolG            ....  1.000e-05
 Orbital Rotation angle TolX            ....  1.000e-05
 DIIS Error             TolErr          ....  5.000e-07


Diagonalization of the overlap matrix:
Smallest eigenvalue                        ... 2.467e-02
Time for diagonalization                   ...    0.001 sec
Threshold for overlap eigenvalues          ... 1.000e-08
Number of eigenvalues below threshold      ... 0
Time for construction of square roots      ...    0.152 sec
Total time needed                          ...    0.217 sec

--------------------------------
INITIAL GUESS: MINIMAL BASIS EHT
--------------------------------
The minimal basis has 20 functions
EHT matrix was diagonalized
Basis set overlap was calculated now projecting the orbitals
Using GuessMode=FMatrix for the initial guess
C*T matrix was formed
Effective Fockian was calculated
Effective Fockian was diagonalized
Initial density was built
                      ------------------
                      INITIAL GUESS DONE
                      ------------------
-------------------
DFT GRID GENERATION
-------------------

General Integration Accuracy     IntAcc      ... 4.959
Radial Grid Type                 RadialGrid  ... OptM3 with GC (2021)
Angular Grid (max. ang.)         AngularGrid ... 6 (Lebedev-590)
Angular grid pruning method      GridPruning ... 4 (adaptive)
Weight generation scheme         WeightScheme... Becke
Basis function cutoff            BFCut       ... 1.0000e-11
Integration weight cutoff        WCut        ... 1.0000e-14
Angular grids for H and He will be reduced by one unit
Partially contracted basis set               ... off
Rotationally invariant grid construction     ... off

Total number of grid points                  ...    88572
Total number of batches                      ...     1389
Average number of points per batch           ...       63
Average number of grid points per atom       ...    11072
Time for grid setup =    1.458 sec

--------------------
COSX GRID GENERATION
--------------------

GRIDX 1
-------
General Integration Accuracy     IntAcc      ... 4.020
Radial Grid Type                 RadialGrid  ... OptM3 with GC (2021)
Angular Grid (max. ang.)         AngularGrid ... 2 (Lebedev-110)
Angular grid pruning method      GridPruning ... 4 (adaptive)
Weight generation scheme         WeightScheme... Becke
Basis function cutoff            BFCut       ... 1.0000e-11
Integration weight cutoff        WCut        ... 1.0000e-14
Angular grids for H and He will be reduced by one unit
Partially contracted basis set               ... on
Rotationally invariant grid construction     ... off

Total number of grid points                  ...     9570
Total number of batches                      ...      153
Average number of points per batch           ...       62
Average number of grid points per atom       ...     1196
UseSFitting                                  ... on

GRIDX 2
-------
General Integration Accuracy     IntAcc      ... 4.338
Radial Grid Type                 RadialGrid  ... OptM3 with GC (2021)
Angular Grid (max. ang.)         AngularGrid ... 3 (Lebedev-194)
Angular grid pruning method      GridPruning ... 4 (adaptive)
Weight generation scheme         WeightScheme... Becke
Basis function cutoff            BFCut       ... 1.0000e-11
Integration weight cutoff        WCut        ... 1.0000e-14
Angular grids for H and He will be reduced by one unit
Partially contracted basis set               ... on
Rotationally invariant grid construction     ... off

Total number of grid points                  ...    21065
Total number of batches                      ...      333
Average number of points per batch           ...       63
Average number of grid points per atom       ...     2633
UseSFitting                                  ... on

GRIDX 3
-------
General Integration Accuracy     IntAcc      ... 4.871
Radial Grid Type                 RadialGrid  ... OptM3 with GC (2021)
Angular Grid (max. ang.)         AngularGrid ... 4 (Lebedev-302)
Angular grid pruning method      GridPruning ... 4 (adaptive)
Weight generation scheme         WeightScheme... Becke
Basis function cutoff            BFCut       ... 1.0000e-11
Integration weight cutoff        WCut        ... 1.0000e-14
Angular grids for H and He will be reduced by one unit
Partially contracted basis set               ... on
Rotationally invariant grid construction     ... off

Total number of grid points                  ...    41912
Total number of batches                      ...      659
Average number of points per batch           ...       63
Average number of grid points per atom       ...     5239
UseSFitting                                  ... on

Time for X-Grid setup             =    1.891 sec

--------------
SCF ITERATIONS
--------------
ITER       Energy         Delta-E        Max-DP      RMS-DP      [F,P]     Damp
               ***  Starting incremental Fock matrix formation  ***
  0   -211.2669499707   0.000000000000 0.16311562  0.00794694  0.5775880 0.7000
  1   -211.4749547794  -0.208004808647 0.07963338  0.00461846  0.2580146 0.7000
                               ***Turning on DIIS***
  2   -211.5862729408  -0.111318161408 0.04790048  0.00274309  0.1466495 0.7000
  3   -211.6613674107  -0.075094469895 0.03994729  0.00190121  0.1014957 0.7000
  4   -211.7145792491  -0.053211838465 0.09626397  0.00495086  0.0713619 0.0000
  5   -211.8431270426  -0.128547793467 0.01342217  0.00069530  0.0092838 0.0000
  6   -211.8434471883  -0.000320145679 0.00559717  0.00028539  0.0037931 0.0000
                      *** Initiating the SOSCF procedure ***
                           *** Shutting down DIIS ***
                      *** Re-Reading the Fockian *** 
                      *** Removing any level shift *** 
ITER      Energy       Delta-E        Grad      Rot      Max-DP    RMS-DP
  7   -211.84352069  -0.0000735004  0.001071  0.001071  0.003593  0.000189
               *** Restarting incremental Fock matrix formation ***
  8   -211.84358093  -0.0000602389  0.000474  0.001135  0.002737  0.000124
  9   -211.84358429  -0.0000033631  0.000311  0.000641  0.001124  0.000069
 10   -211.84358512  -0.0000008303  0.000139  0.000175  0.000506  0.000026
 11   -211.84358532  -0.0000002021  0.000048  0.000030  0.000080  0.000006
 12   -211.84358533  -0.0000000104  0.000018  0.000028  0.000041  0.000003
                 **** Energy Check signals convergence ****
              ***Rediagonalizing the Fockian in SOSCF/NRSCF***

               *****************************************************
               *                     SUCCESS                       *
               *           SCF CONVERGED AFTER  13 CYCLES          *
               *****************************************************

Old exchange energy                            =    -10.506103186 Eh
New exchange energy                            =    -10.506111110 Eh
Exchange energy change after final integration =     -0.000007924 Eh
Total energy after final integration           =   -211.843593262 Eh
Final COS-X integration done in                =     0.583 sec

----------------
TOTAL SCF ENERGY
----------------

Total Energy       :         -211.84359326 Eh           -5764.55724 eV

Components:
Nuclear Repulsion  :           74.92410772 Eh            2038.78862 eV
Electronic Energy  :         -286.76770098 Eh           -7803.34586 eV
One Electron Energy:         -440.31737657 Eh          -11981.64495 eV
Two Electron Energy:          153.54967560 Eh            4178.29909 eV
Max COSX asymmetry :            0.00000324 Eh               0.00009 eV

Virial components:
Potential Energy   :         -422.45445552 Eh          -11495.57016 eV
Kinetic Energy     :          210.61086226 Eh            5731.01292 eV
Virial Ratio       :            2.00585312


DFT components:
N(Alpha)           :       13.999999882378 electrons
N(Beta)            :       13.999999882378 electrons
N(Total)           :       27.999999764756 electrons
E(X)               :      -13.992127247094 Eh       
E(C)               :       -1.235712959722 Eh       
E(XC)              :      -15.227840206816 Eh       
DFET-embed. en.    :        0.000000000000 Eh       

---------------
SCF CONVERGENCE
---------------

  Last Energy change         ...   -4.3659e-09  Tolerance :   1.0000e-08
  Last MAX-Density change    ...    1.4433e-15  Tolerance :   1.0000e-07
  Last RMS-Density change    ...    6.9928e-17  Tolerance :   5.0000e-09
  Last Orbital Gradient      ...    1.7085e-06  Tolerance :   1.0000e-05
  Last Orbital Rotation      ...    3.9641e-06  Tolerance :   1.0000e-05

             **** THE GBW FILE WAS UPDATED (pbeh-3c.gbw) ****
             **** DENSITY pbeh-3c.scfp WAS UPDATED ****
             **** ENERGY FILE WAS UPDATED (pbeh-3c.en.tmp) ****
             **** THE GBW FILE WAS UPDATED (pbeh-3c.gbw) ****
             **** DENSITY pbeh-3c.scfp WAS UPDATED ****
----------------
ORBITAL ENERGIES
----------------

  NO   OCC          E(Eh)            E(eV) 
   0   2.0000     -25.065246      -682.0600 
   1   2.0000     -14.681804      -399.5122 
   2   2.0000     -14.617973      -397.7753 
   3   2.0000      -1.294913       -35.2364 
   4   2.0000      -0.955533       -26.0014 
   5   2.0000      -0.905974       -24.6528 
   6   2.0000      -0.572557       -15.5801 
   7   2.0000      -0.549296       -14.9471 
   8   2.0000      -0.532318       -14.4851 
   9   2.0000      -0.530134       -14.4257 
  10   2.0000      -0.482662       -13.1339 
  11   2.0000      -0.411570       -11.1994 
  12   2.0000      -0.330762        -9.0005 
  13   2.0000      -0.310390        -8.4461 
  14   0.0000       0.106949         2.9102 
  15   0.0000       0.146495         3.9863 
  16   0.0000       0.174243         4.7414 
  17   0.0000       0.204056         5.5526 
  18   0.0000       0.214491         5.8366 
  19   0.0000       0.218599         5.9484 
  20   0.0000       0.625237        17.0136 
  21   0.0000       0.728873        19.8336 
  22   0.0000       0.754675        20.5357 
  23   0.0000       0.808373        21.9969 
  24   0.0000       0.815778        22.1984 
  25   0.0000       0.889334        24.2000 
  26   0.0000       0.990709        26.9586 
  27   0.0000       1.009617        27.4731 
  28   0.0000       1.034345        28.1460 
  29   0.0000       1.035266        28.1710 
  30   0.0000       1.065518        28.9942 
  31   0.0000       1.238294        33.6957 
  32   0.0000       1.250585        34.0301 
  33   0.0000       1.254272        34.1305 
  34   0.0000       1.269834        34.5539 
  35   0.0000       1.275784        34.7159 
  36   0.0000       1.292644        35.1746 
  37   0.0000       1.339935        36.4615 
  38   0.0000       1.374173        37.3932 
  39   0.0000       1.449816        39.4515 
  40   0.0000       1.717280        46.7296 
  41   0.0000       1.722864        46.8815 
  42   0.0000       1.759817        47.8871 
  43   0.0000       1.934545        52.6417 
  44   0.0000       2.028150        55.1888 
  45   0.0000       2.239961        60.9524 
  46   0.0000       2.252179        61.2849 
  47   0.0000       2.318658        63.0939 
  48   0.0000       2.488030        67.7027 
  49   0.0000       2.511520        68.3419 
  50   0.0000       2.530090        68.8472 
  51   0.0000       3.093359        84.1746 
  52   0.0000      18.975567       516.3514 
  53   0.0000      18.985330       516.6171 
  54   0.0000      32.763175       891.5313 

                    ********************************
                    * MULLIKEN POPULATION ANALYSIS *
                    ********************************

-----------------------
MULLIKEN ATOMIC CHARGES
-----------------------
   0 N :   -0.350082
   1 N :   -0.972049
   2 F :   -0.342281
   3 H :    0.336033
   4 H :    0.337441
   5 H :    0.326748
   6 H :    0.337441
   7 H :    0.326748
Sum of atomic charges:   -0.0000000

--------------------------------
MULLIKEN REDUCED ORBITAL CHARGES
--------------------------------
  0 N s       :     3.665735  s :     3.665735
      pz      :     1.231230  p :     3.628249
      px      :     1.572522
      py      :     0.824497
      dz2     :     0.006108  d :     0.056098
      dxz     :     0.010296
      dyz     :     0.016104
      dx2y2   :     0.005211
      dxy     :     0.018380
  1 N s       :     3.665917  s :     3.665917
      pz      :     1.226957  p :     4.274520
      px      :     1.588929
      py      :     1.458635
      dz2     :     0.004448  d :     0.031611
      dxz     :     0.000450
      dyz     :     0.014600
      dx2y2   :     0.007722
      dxy     :     0.004392
  2 F s       :     3.940723  s :     3.940723
      pz      :     1.982342  p :     5.367636
      px      :     1.824173
      py      :     1.561121
      dz2     :     0.004748  d :     0.033922
      dxz     :     0.001048
      dyz     :     0.006026
      dx2y2   :     0.008803
      dxy     :     0.013297
  3 H s       :     0.663967  s :     0.663967
  4 H s       :     0.662559  s :     0.662559
  5 H s       :     0.673252  s :     0.673252
  6 H s       :     0.662559  s :     0.662559
  7 H s       :     0.673252  s :     0.673252


                     *******************************
                     * LOEWDIN POPULATION ANALYSIS *
                     *******************************

----------------------
LOEWDIN ATOMIC CHARGES
----------------------
   0 N :   -0.194085
   1 N :   -0.650697
   2 F :   -0.271950
   3 H :    0.227384
   4 H :    0.222392
   5 H :    0.222282
   6 H :    0.222392
   7 H :    0.222282

-------------------------------
LOEWDIN REDUCED ORBITAL CHARGES
-------------------------------
  0 N s       :     3.345875  s :     3.345875
      pz      :     1.230783  p :     3.733362
      px      :     1.594989
      py      :     0.907590
      dz2     :     0.014969  d :     0.114847
      dxz     :     0.012573
      dyz     :     0.032834
      dx2y2   :     0.016336
      dxy     :     0.038135
  1 N s       :     3.309436  s :     3.309436
      pz      :     1.240364  p :     4.295953
      px      :     1.593761
      py      :     1.461828
      dz2     :     0.007886  d :     0.045308
      dxz     :     0.000457
      dyz     :     0.021445
      dx2y2   :     0.009126
      dxy     :     0.006395
  2 F s       :     3.786722  s :     3.786722
      pz      :     1.969971  p :     5.376991
      px      :     1.827616
      py      :     1.579404
      dz2     :     0.011783  d :     0.108237
      dxz     :     0.004628
      dyz     :     0.019705
      dx2y2   :     0.033026
      dxy     :     0.039094
  3 H s       :     0.772616  s :     0.772616
  4 H s       :     0.777608  s :     0.777608
  5 H s       :     0.777718  s :     0.777718
  6 H s       :     0.777608  s :     0.777608
  7 H s       :     0.777718  s :     0.777718


                      *****************************
                      * MAYER POPULATION ANALYSIS *
                      *****************************

  NA   - Mulliken gross atomic population
  ZA   - Total nuclear charge
  QA   - Mulliken gross atomic charge
  VA   - Mayer's total valence
  BVA  - Mayer's bonded valence
  FA   - Mayer's free valence

  ATOM       NA         ZA         QA         VA         BVA        FA
  0 N      7.3501     7.0000    -0.3501     2.6232     2.6232    -0.0000
  1 N      7.9720     7.0000    -0.9720     2.6540     2.6540    -0.0000
  2 F      9.3423     9.0000    -0.3423     0.9287     0.9287    -0.0000
  3 H      0.6640     1.0000     0.3360     0.8591     0.8591    -0.0000
  4 H      0.6626     1.0000     0.3374     0.8595     0.8595    -0.0000
  5 H      0.6733     1.0000     0.3267     0.8634     0.8634    -0.0000
  6 H      0.6626     1.0000     0.3374     0.8595     0.8595    -0.0000
  7 H      0.6733     1.0000     0.3267     0.8634     0.8634    -0.0000

  Mayer bond orders larger than 0.100000
B(  0-N ,  2-F ) :   0.9106 B(  0-N ,  4-H ) :   0.8471 B(  0-N ,  6-H ) :   0.8471 
B(  1-N ,  3-H ) :   0.8641 B(  1-N ,  5-H ) :   0.8734 B(  1-N ,  7-H ) :   0.8734 


-------
TIMINGS
-------

Total SCF time: 0 days 0 hours 0 min 36 sec 

Total time                  ....      36.260 sec
Sum of individual times     ....      30.848 sec  ( 85.1%)

Fock matrix formation       ....      24.709 sec  ( 68.1%)
  Split-RI-J                ....       3.056 sec  ( 12.4% of F)
  Chain of spheres X        ....       5.030 sec  ( 20.4% of F)
  XC integration            ....       8.115 sec  ( 32.8% of F)
    Basis function eval.    ....       0.785 sec  (  9.7% of XC)
    Density eval.           ....       0.523 sec  (  6.4% of XC)
    XC-Functional eval.     ....       0.670 sec  (  8.3% of XC)
    XC-Potential eval.      ....       0.180 sec  (  2.2% of XC)
Diagonalization             ....       0.392 sec  (  1.1%)
Density matrix formation    ....       0.082 sec  (  0.2%)
Population analysis         ....       0.569 sec  (  1.6%)
Initial guess               ....       0.003 sec  (  0.0%)
Orbital Transformation      ....       0.000 sec  (  0.0%)
Orbital Orthonormalization  ....       0.000 sec  (  0.0%)
DIIS solution               ....       1.165 sec  (  3.2%)
SOSCF solution              ....       0.578 sec  (  1.6%)
Grid generation             ....       3.349 sec  (  9.2%)

Maximum memory used throughout the entire SCF-calculation: 46.2 MB


-------------------------------------------------------------------------------
                          DFT DISPERSION CORRECTION                            
                                                                               
                              DFTD3 V3.1  Rev 1                                
                          USING Becke-Johnson damping                          
-------------------------------------------------------------------------------
The PBEh-3c composite method is recognized
Using three-body term ABC
Active option DFTDOPT                   ...         4   

molecular C6(AA) [au] = 368.684496 


            DFT-D V3
 parameters
 s6 scaling factor         :     1.0000 
 a1 scaling factor         :     0.4860 
 s8 scaling factor         :     0.0000 
 a2 scaling factor         :     4.5000 
 Damping factor alpha9(ATM):    16.0000 
 ad hoc parameters k1-k3   :    16.0000     1.3333    -4.0000 

 Edisp/kcal,au: -1.006650608143  -0.001604199685 
 E6   /kcal   :  -1.005433346 
 E8   /kcal   :  -0.000000000 
 E6(ABC)      :  -0.001217262 
 % E8         :   0.000000000 
 % E6(ABC)    :   0.120922004 

-------------------------   ----------------
Dispersion correction           -0.001604200
-------------------------   ----------------

------------------   -----------------
gCP correction             0.011955649
------------------   -----------------

-------------------------   --------------------
FINAL SINGLE POINT ENERGY      -211.833241812561
-------------------------   --------------------


                            ***************************************
                            *     ORCA property calculations      *
                            ***************************************

                                    ---------------------
                                    Active property flags
                                    ---------------------
   (+) Dipole Moment


------------------------------------------------------------------------------
                       ORCA ELECTRIC PROPERTIES CALCULATION
------------------------------------------------------------------------------

Dipole Moment Calculation                       ... on
Quadrupole Moment Calculation                   ... off
Polarizability Calculation                      ... off
GBWName                                         ... pbeh-3c.gbw
Electron density                                ... pbeh-3c.scfp
The origin for moment calculation is the CENTER OF MASS  = ( 0.103777,  0.312296  0.000000)

-------------
DIPOLE MOMENT
-------------
                                X             Y             Z
Electronic contribution:      2.60874       7.20489      -0.00000
Nuclear contribution   :     -2.90577      -8.74428       0.00000
                        -----------------------------------------
Total Dipole Moment    :     -0.29702      -1.53939      -0.00000
                        -----------------------------------------
Magnitude (a.u.)       :      1.56778
Magnitude (Debye)      :      3.98498



--------------------
Rotational spectrum 
--------------------
 
Rotational constants in cm-1:     3.531939     0.095365     0.095107 
Rotational constants in MHz : 105884.854683  2858.968356  2851.240936 

 Dipole components along the rotational axes: 
x,y,z [a.u.] :     1.551922    -0.000000    -0.222427 
x,y,z [Debye]:     3.944672    -0.000000    -0.565364 

 

Timings for individual modules:

Sum of individual times         ...       38.611 sec (=   0.644 min)
GTO integral calculation        ...        1.739 sec (=   0.029 min)   4.5 %
SCF iterations                  ...       36.872 sec (=   0.615 min)  95.5 %
                             ****ORCA TERMINATED NORMALLY****
TOTAL RUN TIME: 0 days 0 hours 0 minutes 41 seconds 957 msec
