
                                 *****************
                                 * O   R   C   A *
                                 *****************

                                            #,                                       
                                            ###                                      
                                            ####                                     
                                            #####                                    
                                            ######                                   
                                           ########,                                 
                                     ,,################,,,,,                         
                               ,,#################################,,                 
                          ,,##########################################,,             
                       ,#########################################, ''#####,          
                    ,#############################################,,   '####,        
                  ,##################################################,,,,####,       
                ,###########''''           ''''###############################       
              ,#####''   ,,,,##########,,,,          '''####'''          '####       
            ,##' ,,,,###########################,,,                        '##       
           ' ,,###''''                  '''############,,,                           
         ,,##''                                '''############,,,,        ,,,,,,###''
      ,#''                                            '''#######################'''  
     '                                                          ''''####''''         
             ,#######,   #######,   ,#######,      ##                                
            ,#'     '#,  ##    ##  ,#'     '#,    #''#        ######   ,####,        
            ##       ##  ##   ,#'  ##            #'  '#       #        #'  '#        
            ##       ##  #######   ##           ,######,      #####,   #    #        
            '#,     ,#'  ##    ##  '#,     ,#' ,#      #,         ##   #,  ,#        
             '#######'   ##     ##  '#######'  #'      '#     #####' # '####'        



                  #######################################################
                  #                        -***-                        #
                  #          Department of theory and spectroscopy      #
                  #    Directorship and core code : Frank Neese         #
                  #        Max Planck Institute fuer Kohlenforschung    #
                  #                Kaiser Wilhelm Platz 1               #
                  #                 D-45470 Muelheim/Ruhr               #
                  #                      Germany                        #
                  #                                                     #
                  #                  All rights reserved                #
                  #                        -***-                        #
                  #######################################################


                         Program Version 5.0.3 -  RELEASE  -


 With contributions from (in alphabetic order):
   Daniel Aravena         : Magnetic Suceptibility
   Michael Atanasov       : Ab Initio Ligand Field Theory (pilot matlab implementation)
   Alexander A. Auer      : GIAO ZORA, VPT2 properties, NMR spectrum
   Ute Becker             : Parallelization
   Giovanni Bistoni       : ED, misc. LED, open-shell LED, HFLD
   Martin Brehm           : Molecular dynamics
   Dmytro Bykov           : SCF Hessian
   Vijay G. Chilkuri      : MRCI spin determinant printing, contributions to CSF-ICE
   Dipayan Datta          : RHF DLPNO-CCSD density
   Achintya Kumar Dutta   : EOM-CC, STEOM-CC
   Dmitry Ganyushin       : Spin-Orbit,Spin-Spin,Magnetic field MRCI
   Miquel Garcia          : C-PCM and meta-GGA Hessian, CC/C-PCM, Gaussian charge scheme
   Yang Guo               : DLPNO-NEVPT2, F12-NEVPT2, CIM, IAO-localization
   Andreas Hansen         : Spin unrestricted coupled pair/coupled cluster methods
   Benjamin Helmich-Paris : MC-RPA, TRAH-SCF, COSX integrals
   Lee Huntington         : MR-EOM, pCC
   Robert Izsak           : Overlap fitted RIJCOSX, COSX-SCS-MP3, EOM
   Marcus Kettner         : VPT2
   Christian Kollmar      : KDIIS, OOCD, Brueckner-CCSD(T), CCSD density, CASPT2, CASPT2-K
   Simone Kossmann        : Meta GGA functionals, TD-DFT gradient, OOMP2, MP2 Hessian
   Martin Krupicka        : Initial AUTO-CI
   Lucas Lang             : DCDCAS
   Marvin Lechner         : AUTO-CI (C++ implementation), FIC-MRCC
   Dagmar Lenk            : GEPOL surface, SMD
   Dimitrios Liakos       : Extrapolation schemes; Compound Job, initial MDCI parallelization
   Dimitrios Manganas     : Further ROCIS development; embedding schemes
   Dimitrios Pantazis     : SARC Basis sets
   Anastasios Papadopoulos: AUTO-CI, single reference methods and gradients
   Taras Petrenko         : DFT Hessian,TD-DFT gradient, ASA, ECA, R-Raman, ABS, FL, XAS/XES, NRVS
   Peter Pinski           : DLPNO-MP2, DLPNO-MP2 Gradient
   Christoph Reimann      : Effective Core Potentials
   Marius Retegan         : Local ZFS, SOC
   Christoph Riplinger    : Optimizer, TS searches, QM/MM, DLPNO-CCSD(T), (RO)-DLPNO pert. Triples
   Tobias Risthaus        : Range-separated hybrids, TD-DFT gradient, RPA, STAB
   Michael Roemelt        : Original ROCIS implementation
   Masaaki Saitow         : Open-shell DLPNO-CCSD energy and density
   Barbara Sandhoefer     : DKH picture change effects
   Avijit Sen             : IP-ROCIS
   Kantharuban Sivalingam : CASSCF convergence, NEVPT2, FIC-MRCI
   Bernardo de Souza      : ESD, SOC TD-DFT
   Georgi Stoychev        : AutoAux, RI-MP2 NMR, DLPNO-MP2 response
   Willem Van den Heuvel  : Paramagnetic NMR
   Boris Wezisla          : Elementary symmetry handling
   Frank Wennmohs         : Technical directorship


 We gratefully acknowledge several colleagues who have allowed us to
 interface, adapt or use parts of their codes:
   Stefan Grimme, W. Hujo, H. Kruse, P. Pracht,  : VdW corrections, initial TS optimization,
                  C. Bannwarth, S. Ehlert          DFT functionals, gCP, sTDA/sTD-DF
   Ed Valeev, F. Pavosevic, A. Kumar             : LibInt (2-el integral package), F12 methods
   Garnet Chan, S. Sharma, J. Yang, R. Olivares  : DMRG
   Ulf Ekstrom                                   : XCFun DFT Library
   Mihaly Kallay                                 : mrcc  (arbitrary order and MRCC methods)
   Jiri Pittner, Ondrej Demel                    : Mk-CCSD
   Frank Weinhold                                : gennbo (NPA and NBO analysis)
   Christopher J. Cramer and Donald G. Truhlar   : smd solvation model
   Lars Goerigk                                  : TD-DFT with DH, B97 family of functionals
   V. Asgeirsson, H. Jonsson                     : NEB implementation
   FAccTs GmbH                                   : IRC, NEB, NEB-TS, DLPNO-Multilevel, CI-OPT
                                                   MM, QMMM, 2- and 3-layer-ONIOM, Crystal-QMMM,
                                                   LR-CPCM, SF, NACMEs, symmetry and pop. for TD-DFT,
                                                   nearIR, NL-DFT gradient (VV10), updates on ESD,
                                                   ML-optimized integration grids
   S Lehtola, MJT Oliveira, MAL Marques          : LibXC Library
   Liviu Ungur et al                             : ANISO software


 Your calculation uses the libint2 library for the computation of 2-el integrals
 For citations please refer to: http://libint.valeyev.net

 Your ORCA version has been built with support for libXC version: 5.1.0
 For citations please refer to: https://tddft.org/programs/libxc/

 This ORCA versions uses:
   CBLAS   interface :  Fast vector & matrix operations
   LAPACKE interface :  Fast linear algebra routines
   SCALAPACK package :  Parallel linear algebra routines
   Shared memory     :  Shared parallel matrices
   BLAS/LAPACK       :  OpenBLAS 0.3.15  USE64BITINT DYNAMIC_ARCH NO_AFFINITY Haswell SINGLE_THREADED
        Core in use  :  Haswell
   Copyright (c) 2011-2014, The OpenBLAS Project




***************************************
The coordinates will be read from file: 9.xyz
***************************************


Your calculation utilizes the geometrical counterpoise correction gCP
Please cite in your paper:
H.Kruse, S. Grimme J.Chem.Phys., 136, (2012), 154101 
   

Your calculation utilizes the atom-pairwise dispersion correction
with the Becke-Johnson damping scheme (D3BJ)
Cite in your paper:
S.Grimme, S.Ehrlich, L.Goerigk, J Comput Chem, (2011), 32, 1456–1465 
S.Grimme, J.Antony, S.Ehrlich and H.Krieg, J.Chem.Phys., 132, (2010), 154104 
   

Your calculation employs the composite approach PBEh-3c.
Please cite in your paper:
S. Grimme, J. G. Brandenburg, C. Bannwarth, A. Hansen J.Chem.Phys., 143, (2015), 054107 
   

================================================================================

----- Orbital basis set information -----
Your calculation utilizes the basis: def2-mSVP

----- AuxJ basis set information -----
Your calculation utilizes the auxiliary basis: def2/J
   F. Weigend, Phys. Chem. Chem. Phys. 8, 1057 (2006).

================================================================================
                                        WARNINGS
                       Please study these warnings very carefully!
================================================================================


INFO   : the flag for use of the SHARK integral package has been found!

================================================================================
                                       INPUT FILE
================================================================================
NAME = pbeh-3c.inp
|  1> ! PBEh-3c def2/J TightSCF DefGrid3
|  2> 
|  3> %maxcore 60000
|  4> 
|  5> %pal
|  6> nprocs 4
|  7> end
|  8> 
|  9> *xyzfile 0 1 9.xyz
| 10> 
| 11>                          ****END OF INPUT****
================================================================================

                       ****************************
                       * Single Point Calculation *
                       ****************************

---------------------------------
CARTESIAN COORDINATES (ANGSTROEM)
---------------------------------
  N     -0.031429    2.494984   -0.359811
  C      1.010409    1.795267   -0.933409
  C      0.651474    0.480956   -1.125648
  C     -0.697744    0.359969   -0.641436
  C     -1.603364   -0.709763   -0.570910
  C     -2.870411   -0.487797   -0.044172
  C     -3.251137    0.792668    0.416080
  C     -2.367170    1.865104    0.352358
  C     -1.095705    1.640078   -0.175423
  H     -0.033326    3.479888   -0.169270
  H      1.940179    2.287368   -1.170455
  H     -1.350662   -1.700944   -0.923502
  H     -4.236531    0.958709    0.822833
  H     -2.671546    2.842315    0.704688
  O     -3.697646   -1.582115   -0.009328
  C     -5.003562   -1.385543    0.504824
  H     -4.979303   -1.061916    1.547777
  H     -5.561546   -0.656936   -0.087370
  H     -5.496115   -2.351229    0.441374
  C      1.522451   -0.611281   -1.659347
  C      1.931016   -1.612448   -0.565680
  N      2.574638   -0.971520    0.568211
  C      3.857050   -0.516227    0.482058
  C      4.338777    0.298376    1.666276
  H      1.007126   -1.159628   -2.452956
  H      2.429197   -0.186915   -2.091283
  H      1.056712   -2.142857   -0.189765
  H      2.627141   -2.340943   -0.977584
  H      1.985506   -0.581042    1.282190
  O      4.579349   -0.756776   -0.476357
  H      4.499202    1.325065    1.339836
  H      3.640495    0.294448    2.501195
  H      5.296474   -0.099317    1.994015

----------------------------
CARTESIAN COORDINATES (A.U.)
----------------------------
  NO LB      ZA    FRAG     MASS         X           Y           Z
   0 N     7.0000    0    14.007   -0.059392    4.714836   -0.679945
   1 C     6.0000    0    12.011    1.909397    3.392563   -1.763888
   2 C     6.0000    0    12.011    1.231108    0.908875   -2.127167
   3 C     6.0000    0    12.011   -1.318545    0.680243   -1.212139
   4 C     6.0000    0    12.011   -3.029918   -1.341258   -1.078864
   5 C     6.0000    0    12.011   -5.424292   -0.921803   -0.083474
   6 C     6.0000    0    12.011   -6.143759    1.497925    0.786276
   7 C     6.0000    0    12.011   -4.473302    3.524536    0.665859
   8 C     6.0000    0    12.011   -2.070582    3.099298   -0.331502
   9 H     1.0000    0     1.008   -0.062976    6.576035   -0.319875
  10 H     1.0000    0     1.008    3.666407    4.322499   -2.211840
  11 H     1.0000    0     1.008   -2.552381   -3.214318   -1.745166
  12 H     1.0000    0     1.008   -8.005884    1.811697    1.554930
  13 H     1.0000    0     1.008   -5.048491    5.371197    1.331667
  14 O     8.0000    0    15.999   -6.987537   -2.989764   -0.017628
  15 C     6.0000    0    12.011   -9.455363   -2.618296    0.953978
  16 H     1.0000    0     1.008   -9.409520   -2.006730    2.924874
  17 H     1.0000    0     1.008  -10.509799   -1.241429   -0.165106
  18 H     1.0000    0     1.008  -10.386153   -4.443179    0.834075
  19 C     6.0000    0    12.011    2.877016   -1.155153   -3.135712
  20 C     6.0000    0    12.011    3.649092   -3.047085   -1.068981
  21 N     7.0000    0    14.007    4.865361   -1.835907    1.073762
  22 C     6.0000    0    12.011    7.288768   -0.975527    0.910957
  23 C     6.0000    0    12.011    8.199100    0.563849    3.148804
  24 H     1.0000    0     1.008    1.903193   -2.191379   -4.635415
  25 H     1.0000    0     1.008    4.590517   -0.353218   -3.951953
  26 H     1.0000    0     1.008    1.996897   -4.049412   -0.358605
  27 H     1.0000    0     1.008    4.964577   -4.423741   -1.847367
  28 H     1.0000    0     1.008    3.752063   -1.098010    2.422987
  29 O     8.0000    0    15.999    8.653715   -1.430099   -0.900185
  30 H     1.0000    0     1.008    8.502260    2.504010    2.531924
  31 H     1.0000    0     1.008    6.879539    0.556426    4.726574
  32 H     1.0000    0     1.008   10.008885   -0.187682    3.768143

--------------------------------
INTERNAL COORDINATES (ANGSTROEM)
--------------------------------
 N      0   0   0     0.000000000000     0.00000000     0.00000000
 C      1   0   0     1.379871240678     0.00000000     0.00000000
 C      2   1   0     1.375937247553   110.21198521     0.00000000
 C      3   2   1     1.438571533429   106.13915201     0.04389377
 C      4   3   2     1.403370102191   133.33465878   179.64499890
 C      5   4   3     1.390011585094   119.04870229   180.61575033
 C      6   5   4     1.412931191075   120.91563095     0.00000000
 C      7   6   5     1.391250696720   120.82697636     0.06913640
 C      1   2   3     1.377514571502   108.92152020   359.67527944
 H      1   2   3     1.003167565029   125.32685621   183.63479604
 H      2   1   3     1.078344224848   120.72828259   179.71822768
 H      5   4   3     1.081951443122   122.08730254   359.94905725
 H      7   6   5     1.078897347760   120.55622919   179.92926319
 H      8   7   6     1.082461576535   120.15378515   179.77208325
 O      6   5   4     1.372247011785   115.58068571   179.98344757
 C     15   6   5     1.417184455176   117.00707874   180.85785071
 H     16  15   6     1.092279094876   111.53351925   298.23631854
 H     16  15   6     1.092203177537   111.50542807    60.81189455
 H     16  15   6     1.085902257293   105.86829810   179.53422272
 C      3   2   1     1.495465480328   126.55424614   183.16724329
 C     20   3   2     1.537975203741   112.10972069   107.92008345
 N     21  20   3     1.452840890037   112.67507870   304.79519794
 C     22  21  20     1.363559436372   120.97307748   285.45620416
 C     23  22  21     1.515919134353   115.40008983   171.89150206
 H     20   3   2     1.093644994591   110.53253438   228.91732735
 H     20   3   2     1.090340887444   109.96573482   347.36617051
 H     21  20   3     1.089519666670   110.43128994    65.04252934
 H     21  20   3     1.088558589827   109.66055795   184.60463109
 H     22  21  20     1.004646928803   117.79688941    84.14963955
 O     23  22  21     1.223984817948   122.60567341   351.16485309
 H     24  23  22     1.089214810800   108.61452224   246.94359274
 H     24  23  22     1.088441280053   113.16774862     8.29969716
 H     24  23  22     1.087546092163   108.58737678   129.99721396

---------------------------
INTERNAL COORDINATES (A.U.)
---------------------------
 N      0   0   0     0.000000000000     0.00000000     0.00000000
 C      1   0   0     2.607578744955     0.00000000     0.00000000
 C      2   1   0     2.600144575337   110.21198521     0.00000000
 C      3   2   1     2.718506222237   106.13915201     0.04389377
 C      4   3   2     2.651985157675   133.33465878   179.64499890
 C      5   4   3     2.626741218805   119.04870229   180.61575033
 C      6   5   4     2.670052997207   120.91563095     0.00000000
 C      7   6   5     2.629082800427   120.82697636     0.06913640
 C      1   2   3     2.603125285625   108.92152020   359.67527944
 H      1   2   3     1.895711964337   125.32685621   183.63479604
 H      2   1   3     2.037775263058   120.72828259   179.71822768
 H      5   4   3     2.044591917702   122.08730254   359.94905725
 H      7   6   5     2.038820513880   120.55622919   179.92926319
 H      8   7   6     2.045555930144   120.15378515   179.77208325
 O      6   5   4     2.593171040365   115.58068571   179.98344757
 C     15   6   5     2.678090501534   117.00707874   180.85785071
 H     16  15   6     2.064108351123   111.53351925   298.23631854
 H     16  15   6     2.063964888144   111.50542807    60.81189455
 H     16  15   6     2.052057874491   105.86829810   179.53422272
 C      3   2   1     2.826020200552   126.55424614   183.16724329
 C     20   3   2     2.906351935833   112.10972069   107.92008345
 N     21  20   3     2.745471398332   112.67507870   304.79519794
 C     22  21  20     2.576753902067   120.97307748   285.45620416
 C     23  22  21     2.864672005098   115.40008983   171.89150206
 H     20   3   2     2.066689527510   110.53253438   228.91732735
 H     20   3   2     2.060445669885   109.96573482   347.36617051
 H     21  20   3     2.058893787528   110.43128994    65.04252934
 H     21  20   3     2.057077615500   109.66055795   184.60463109
 H     22  21  20     1.898507556723   117.79688941    84.14963955
 O     23  22  21     2.312996097999   122.60567341   351.16485309
 H     24  23  22     2.058317693424   108.61452224   246.94359274
 H     24  23  22     2.056855932155   113.16774862     8.29969716
 H     24  23  22     2.055164272205   108.58737678   129.99721396

---------------------
BASIS SET INFORMATION
---------------------
There are 4 groups of distinct atoms

 Group   1 Type N   : 8s4p1d contracted to 4s2p1d pattern {5111/31/1}
 Group   2 Type C   : 8s4p1d contracted to 4s2p1d pattern {5111/31/1}
 Group   3 Type H   : 4s contracted to 2s pattern {31}
 Group   4 Type O   : 8s4p1d contracted to 4s2p1d pattern {5111/31/1}

Atom   0N    basis set group =>   1
Atom   1C    basis set group =>   2
Atom   2C    basis set group =>   2
Atom   3C    basis set group =>   2
Atom   4C    basis set group =>   2
Atom   5C    basis set group =>   2
Atom   6C    basis set group =>   2
Atom   7C    basis set group =>   2
Atom   8C    basis set group =>   2
Atom   9H    basis set group =>   3
Atom  10H    basis set group =>   3
Atom  11H    basis set group =>   3
Atom  12H    basis set group =>   3
Atom  13H    basis set group =>   3
Atom  14O    basis set group =>   4
Atom  15C    basis set group =>   2
Atom  16H    basis set group =>   3
Atom  17H    basis set group =>   3
Atom  18H    basis set group =>   3
Atom  19C    basis set group =>   2
Atom  20C    basis set group =>   2
Atom  21N    basis set group =>   1
Atom  22C    basis set group =>   2
Atom  23C    basis set group =>   2
Atom  24H    basis set group =>   3
Atom  25H    basis set group =>   3
Atom  26H    basis set group =>   3
Atom  27H    basis set group =>   3
Atom  28H    basis set group =>   3
Atom  29O    basis set group =>   4
Atom  30H    basis set group =>   3
Atom  31H    basis set group =>   3
Atom  32H    basis set group =>   3
---------------------------------
AUXILIARY/J BASIS SET INFORMATION
---------------------------------
There are 4 groups of distinct atoms

 Group   1 Type N   : 12s5p4d2f1g contracted to 6s4p3d1f1g pattern {711111/2111/211/2/1}
 Group   2 Type C   : 12s5p4d2f1g contracted to 6s4p3d1f1g pattern {711111/2111/211/2/1}
 Group   3 Type H   : 5s2p1d contracted to 3s1p1d pattern {311/2/1}
 Group   4 Type O   : 12s5p4d2f1g contracted to 6s4p3d1f1g pattern {711111/2111/211/2/1}

Atom   0N    basis set group =>   1
Atom   1C    basis set group =>   2
Atom   2C    basis set group =>   2
Atom   3C    basis set group =>   2
Atom   4C    basis set group =>   2
Atom   5C    basis set group =>   2
Atom   6C    basis set group =>   2
Atom   7C    basis set group =>   2
Atom   8C    basis set group =>   2
Atom   9H    basis set group =>   3
Atom  10H    basis set group =>   3
Atom  11H    basis set group =>   3
Atom  12H    basis set group =>   3
Atom  13H    basis set group =>   3
Atom  14O    basis set group =>   4
Atom  15C    basis set group =>   2
Atom  16H    basis set group =>   3
Atom  17H    basis set group =>   3
Atom  18H    basis set group =>   3
Atom  19C    basis set group =>   2
Atom  20C    basis set group =>   2
Atom  21N    basis set group =>   1
Atom  22C    basis set group =>   2
Atom  23C    basis set group =>   2
Atom  24H    basis set group =>   3
Atom  25H    basis set group =>   3
Atom  26H    basis set group =>   3
Atom  27H    basis set group =>   3
Atom  28H    basis set group =>   3
Atom  29O    basis set group =>   4
Atom  30H    basis set group =>   3
Atom  31H    basis set group =>   3
Atom  32H    basis set group =>   3


           ************************************************************
           *        Program running with 4 parallel MPI-processes     *
           *              working on a common directory               *
           ************************************************************
------------------------------------------------------------------------------
                           ORCA GTO INTEGRAL CALCULATION
                           -- RI-GTO INTEGRALS CHOSEN --
------------------------------------------------------------------------------
------------------------------------------------------------------------------
                   ___                                                        
                  /   \      - P O W E R E D   B Y -                         
                 /     \                                                     
                 |  |  |   _    _      __       _____    __    __             
                 |  |  |  | |  | |    /  \     |  _  \  |  |  /  |          
                  \  \/   | |  | |   /    \    | | | |  |  | /  /          
                 / \  \   | |__| |  /  /\  \   | |_| |  |  |/  /          
                |  |  |   |  __  | /  /__\  \  |    /   |      \           
                |  |  |   | |  | | |   __   |  |    \   |  |\   \          
                \     /   | |  | | |  |  |  |  | |\  \  |  | \   \       
                 \___/    |_|  |_| |__|  |__|  |_| \__\ |__|  \__/        
                                                                              
                      - O R C A' S   B I G   F R I E N D -                    
                                      &                                       
                       - I N T E G R A L  F E E D E R -                       
                                                                              
 v1 FN, 2020, v2 2021                                                         
------------------------------------------------------------------------------


Reading SHARK input file pbeh-3c.SHARKINP.tmp ... ok
----------------------
SHARK INTEGRAL PACKAGE
----------------------

Number of atoms                             ...     33
Number of basis functions                   ...    287
Number of shells                            ...    151
Maximum angular momentum                    ...      2
Integral batch strategy                     ... SHARK/LIBINT Hybrid
RI-J (if used) integral strategy            ... SPLIT-RIJ (Revised 2003 algorithm where possible)
Printlevel                                  ...      1
Contraction scheme used                     ... SEGMENTED contraction
Coulomb Range Separation                    ... NOT USED
Exchange Range Separation                   ... NOT USED
Finite Nucleus Model                        ... NOT USED
Auxiliary Coulomb fitting basis             ... AVAILABLE
   # of basis functions in Aux-J            ...   1009
   # of shells in Aux-J                     ...    335
   Maximum angular momentum in Aux-J        ...      4
Auxiliary J/K fitting basis                 ... NOT available
Auxiliary Correlation fitting basis         ... NOT available
Auxiliary 'external' fitting basis          ... NOT available
Integral threshold                          ...     2.500000e-11
Primitive cut-off                           ...     2.500000e-12
Primitive pair pre-selection threshold      ...     2.500000e-12

Calculating pre-screening integrals         ... done (  0.1 sec) Dimension = 151
Organizing shell pair data                  ... done (  0.4 sec)
Shell pair information
Total number of shell pairs                 ...     11476
Shell pairs after pre-screening             ...      8152
Total number of primitive shell pairs       ...     41024
Primitive shell pairs kept                  ...     18759
          la=0 lb=0:   3212 shell pairs
          la=1 lb=0:   2722 shell pairs
          la=1 lb=1:    537 shell pairs
          la=2 lb=0:   1098 shell pairs
          la=2 lb=1:    477 shell pairs
          la=2 lb=2:    106 shell pairs

Calculating one electron integrals          ... done (  0.2 sec)
Calculating RI/J V-Matrix + Cholesky decomp.... done (  0.4 sec)
Calculating Nuclear repulsion               ... done (  0.1 sec) ENN=   1172.995866402491 Eh

SHARK setup successfully completed in   1.9 seconds

Maximum memory used throughout the entire GTOINT-calculation: 18.0 MB


           ************************************************************
           *        Program running with 4 parallel MPI-processes     *
           *              working on a common directory               *
           ************************************************************
-------------------------------------------------------------------------------
                                 ORCA SCF
-------------------------------------------------------------------------------

------------
SCF SETTINGS
------------
Hamiltonian:
 Density Functional     Method          .... DFT(GTOs)
 Exchange Functional    Exchange        .... PBE
   PBE kappa parameter   XKappa         ....  1.024500
   PBE mue parameter    XMuePBE         ....  0.123457
 Correlation Functional Correlation     .... PBE
   PBE beta parameter  CBetaPBE         ....  0.030000
 LDA part of GGA corr.  LDAOpt          .... PW91-LDA
 Gradients option       PostSCFGGA      .... off
 Hybrid DFT is turned on
   Fraction HF Exchange ScalHFX         ....  0.420000
   Scaling of DF-GGA-X  ScalDFX         ....  0.580000
   Scaling of DF-GGA-C  ScalDFC         ....  1.000000
   Scaling of DF-LDA-C  ScalLDAC        ....  1.000000
   Perturbative correction              ....  0.000000
   Density functional embedding theory  .... OFF
 RI-approximation to the Coulomb term is turned on
   Number of AuxJ basis functions       .... 1009
   RIJ-ON(X) (HFX calculated with O(N)) .... on
   Number of AuxJ basis functions       .... 1009
   RIJ-COSX (HFX calculated with COS-X)).... on


General Settings:
 Integral files         IntName         .... pbeh-3c
 Hartree-Fock type      HFTyp           .... RHF
 Total Charge           Charge          ....    0
 Multiplicity           Mult            ....    1
 Number of Electrons    NEL             ....  124
 Basis Dimension        Dim             ....  287
 Nuclear Repulsion      ENuc            ....   1172.9958664025 Eh

Convergence Acceleration:
 DIIS                   CNVDIIS         .... on
   Start iteration      DIISMaxIt       ....    12
   Startup error        DIISStart       ....  0.200000
   # of expansion vecs  DIISMaxEq       ....     5
   Bias factor          DIISBfac        ....   1.050
   Max. coefficient     DIISMaxC        ....  10.000
 Trust-Rad. Augm. Hess. CNVTRAH         .... auto
   Auto Start mean grad. ratio tolernc. ....  1.125000
   Auto Start start iteration           ....    20
   Auto Start num. interpolation iter.  ....    10
   Max. Number of Micro iterations      ....    16
   Max. Number of Macro iterations      .... Maxiter - #DIIS iter
   Number of Davidson start vectors     ....     2
   Converg. threshold I  (grad. norm)   ....   1.000e-05
   Converg. threshold II (energy diff.) ....   1.000e-08
   Grad. Scal. Fac. for Micro threshold ....   0.100
   Minimum threshold for Micro iter.    ....   0.010
   NR start threshold (gradient norm)   ....   0.001
   Initial trust radius                 ....   0.400
   Minimum AH scaling param. (alpha)    ....   1.000
   Maximum AH scaling param. (alpha)    .... 1000.000
   Orbital update algorithm             .... Taylor
   White noise on init. David. guess    .... on
   Maximum white noise                  ....   0.010
   Quad. conv. algorithm                .... NR
   COSX micro iterations for RIJONX calc.... off
 SOSCF                  CNVSOSCF        .... on
   Start iteration      SOSCFMaxIt      ....   150
   Startup grad/error   SOSCFStart      ....  0.003300
 Level Shifting         CNVShift        .... on
   Level shift para.    LevelShift      ....    0.2500
   Turn off err/grad.   ShiftErr        ....    0.0010
 Zerner damping         CNVZerner       .... off
 Static damping         CNVDamp         .... on
   Fraction old density DampFac         ....    0.7000
   Max. Damping (<1)    DampMax         ....    0.9800
   Min. Damping (>=0)   DampMin         ....    0.0000
   Turn off err/grad.   DampErr         ....    0.1000
 Fernandez-Rico         CNVRico         .... off

SCF Procedure:
 Maximum # iterations   MaxIter         ....   125
 SCF integral mode      SCFMode         .... Direct
   Integral package                     .... SHARK and LIBINT hybrid scheme
 Reset frequency        DirectResetFreq ....    20
 Integral Threshold     Thresh          ....  2.500e-11 Eh
 Primitive CutOff       TCut            ....  2.500e-12 Eh

Convergence Tolerance:
 Convergence Check Mode ConvCheckMode   .... Total+1el-Energy
 Convergence forced     ConvForced      .... 0
 Energy Change          TolE            ....  1.000e-08 Eh
 1-El. energy change                    ....  1.000e-05 Eh
 Orbital Gradient       TolG            ....  1.000e-05
 Orbital Rotation angle TolX            ....  1.000e-05
 DIIS Error             TolErr          ....  5.000e-07


Diagonalization of the overlap matrix:
Smallest eigenvalue                        ... 4.026e-04
Time for diagonalization                   ...    0.052 sec
Threshold for overlap eigenvalues          ... 1.000e-08
Number of eigenvalues below threshold      ... 0
Time for construction of square roots      ...    0.184 sec
Total time needed                          ...    0.580 sec

--------------------------------
INITIAL GUESS: MINIMAL BASIS EHT
--------------------------------
The minimal basis has 101 functions
EHT matrix was diagonalized
Basis set overlap was calculated now projecting the orbitals
Using GuessMode=FMatrix for the initial guess
C*T matrix was formed
Effective Fockian was calculated
Effective Fockian was diagonalized
Initial density was built
                      ------------------
                      INITIAL GUESS DONE
                      ------------------
-------------------
DFT GRID GENERATION
-------------------

General Integration Accuracy     IntAcc      ... 4.959
Radial Grid Type                 RadialGrid  ... OptM3 with GC (2021)
Angular Grid (max. ang.)         AngularGrid ... 6 (Lebedev-590)
Angular grid pruning method      GridPruning ... 4 (adaptive)
Weight generation scheme         WeightScheme... Becke
Basis function cutoff            BFCut       ... 1.0000e-11
Integration weight cutoff        WCut        ... 1.0000e-14
Angular grids for H and He will be reduced by one unit
Partially contracted basis set               ... off
Rotationally invariant grid construction     ... off

Total number of grid points                  ...   379017
Total number of batches                      ...     5936
Average number of points per batch           ...       63
Average number of grid points per atom       ...    11485
Time for grid setup =    8.839 sec

--------------------
COSX GRID GENERATION
--------------------

GRIDX 1
-------
General Integration Accuracy     IntAcc      ... 4.020
Radial Grid Type                 RadialGrid  ... OptM3 with GC (2021)
Angular Grid (max. ang.)         AngularGrid ... 2 (Lebedev-110)
Angular grid pruning method      GridPruning ... 4 (adaptive)
Weight generation scheme         WeightScheme... Becke
Basis function cutoff            BFCut       ... 1.0000e-11
Integration weight cutoff        WCut        ... 1.0000e-14
Angular grids for H and He will be reduced by one unit
Partially contracted basis set               ... on
Rotationally invariant grid construction     ... off

Total number of grid points                  ...    41917
Total number of batches                      ...      675
Average number of points per batch           ...       62
Average number of grid points per atom       ...     1270
UseSFitting                                  ... on

GRIDX 2
-------
General Integration Accuracy     IntAcc      ... 4.338
Radial Grid Type                 RadialGrid  ... OptM3 with GC (2021)
Angular Grid (max. ang.)         AngularGrid ... 3 (Lebedev-194)
Angular grid pruning method      GridPruning ... 4 (adaptive)
Weight generation scheme         WeightScheme... Becke
Basis function cutoff            BFCut       ... 1.0000e-11
Integration weight cutoff        WCut        ... 1.0000e-14
Angular grids for H and He will be reduced by one unit
Partially contracted basis set               ... on
Rotationally invariant grid construction     ... off

Total number of grid points                  ...    91699
Total number of batches                      ...     1453
Average number of points per batch           ...       63
Average number of grid points per atom       ...     2779
UseSFitting                                  ... on

GRIDX 3
-------
General Integration Accuracy     IntAcc      ... 4.871
Radial Grid Type                 RadialGrid  ... OptM3 with GC (2021)
Angular Grid (max. ang.)         AngularGrid ... 4 (Lebedev-302)
Angular grid pruning method      GridPruning ... 4 (adaptive)
Weight generation scheme         WeightScheme... Becke
Basis function cutoff            BFCut       ... 1.0000e-11
Integration weight cutoff        WCut        ... 1.0000e-14
Angular grids for H and He will be reduced by one unit
Partially contracted basis set               ... on
Rotationally invariant grid construction     ... off

Total number of grid points                  ...   173572
Total number of batches                      ...     2729
Average number of points per batch           ...       63
Average number of grid points per atom       ...     5260
UseSFitting                                  ... on

Time for X-Grid setup             =    5.677 sec

--------------
SCF ITERATIONS
--------------
ITER       Energy         Delta-E        Max-DP      RMS-DP      [F,P]     Damp
               ***  Starting incremental Fock matrix formation  ***
  0   -761.2754423828   0.000000000000 0.20366896  0.00453051  0.5657624 0.7000
  1   -761.9859577137  -0.710515330818 0.11400951  0.00293659  0.2918799 0.7000
  2   -762.3898584453  -0.403900731674 0.08205556  0.00195296  0.2050700 0.7000
                               ***Turning on DIIS***
  3   -762.6750353882  -0.285176942892 0.05813850  0.00138739  0.1441186 0.7000
  4   -762.8796049683  -0.204569580106 0.04078990  0.00103948  0.1010889 0.7000
  5   -763.0244303278  -0.144825359463 0.09481299  0.00253691  0.0709670 0.0000
  6   -763.3688990540  -0.344468726204 0.00515949  0.00010253  0.0038409 0.0000
                      *** Initiating the SOSCF procedure ***
                           *** Shutting down DIIS ***
                      *** Re-Reading the Fockian *** 
                      *** Removing any level shift *** 
ITER      Energy       Delta-E        Grad      Rot      Max-DP    RMS-DP
  7   -763.36908835  -0.0001892950  0.000634  0.000634  0.002017  0.000045
               *** Restarting incremental Fock matrix formation ***
  8   -763.36913143  -0.0000430771  0.000880  0.002441  0.001906  0.000035
  9   -763.36913875  -0.0000073225  0.000441  0.000441  0.001622  0.000025
 10   -763.36914453  -0.0000057776  0.000080  0.000152  0.000523  0.000009
 11   -763.36914495  -0.0000004188  0.000031  0.000057  0.000122  0.000002
 12   -763.36914499  -0.0000000481  0.000016  0.000032  0.000085  0.000001
 13   -763.36914502  -0.0000000241  0.000005  0.000019  0.000014  0.000000
 14   -763.36914502  -0.0000000049  0.000006  0.000011  0.000007  0.000000
                  ***Gradient check signals convergence***
              ***Rediagonalizing the Fockian in SOSCF/NRSCF***

               *****************************************************
               *                     SUCCESS                       *
               *           SCF CONVERGED AFTER  15 CYCLES          *
               *****************************************************

Old exchange energy                            =    -43.179627274 Eh
New exchange energy                            =    -43.179632633 Eh
Exchange energy change after final integration =     -0.000005359 Eh
Total energy after final integration           =   -763.369150382 Eh
Final COS-X integration done in                =    20.864 sec

----------------
TOTAL SCF ENERGY
----------------

Total Energy       :         -763.36915038 Eh          -20772.33063 eV

Components:
Nuclear Repulsion  :         1172.99586640 Eh           31918.84025 eV
Electronic Energy  :        -1936.36501678 Eh          -52691.17087 eV
One Electron Energy:        -3366.64994237 Eh          -91611.20236 eV
Two Electron Energy:         1430.28492559 Eh           38920.03148 eV
Max COSX asymmetry :            0.00000359 Eh               0.00010 eV

Virial components:
Potential Energy   :        -1520.78113515 Eh          -41382.55854 eV
Kinetic Energy     :          757.41198477 Eh           20610.22791 eV
Virial Ratio       :            2.00786516


DFT components:
N(Alpha)           :       62.000012239844 electrons
N(Beta)            :       62.000012239844 electrons
N(Total)           :      124.000024479688 electrons
E(X)               :      -57.399271692487 Eh       
E(C)               :       -5.447805967254 Eh       
E(XC)              :      -62.847077659741 Eh       
DFET-embed. en.    :        0.000000000000 Eh       

---------------
SCF CONVERGENCE
---------------

  Last Energy change         ...   -5.5604e-10  Tolerance :   1.0000e-08
  Last MAX-Density change    ...    1.6653e-15  Tolerance :   1.0000e-07
  Last RMS-Density change    ...    3.1008e-17  Tolerance :   5.0000e-09
  Last Orbital Gradient      ...    8.5411e-07  Tolerance :   1.0000e-05
  Last Orbital Rotation      ...    2.6223e-06  Tolerance :   1.0000e-05

             **** THE GBW FILE WAS UPDATED (pbeh-3c.gbw) ****
             **** DENSITY pbeh-3c.scfp WAS UPDATED ****
             **** ENERGY FILE WAS UPDATED (pbeh-3c.en.tmp) ****
             **** THE GBW FILE WAS UPDATED (pbeh-3c.gbw) ****
             **** DENSITY pbeh-3c.scfp WAS UPDATED ****
----------------
ORBITAL ENERGIES
----------------

  NO   OCC          E(Eh)            E(eV) 
   0   2.0000     -19.519875      -531.1628 
   1   2.0000     -19.445495      -529.1388 
   2   2.0000     -14.684403      -399.5829 
   3   2.0000     -14.651407      -398.6851 
   4   2.0000     -10.538959      -286.7797 
   5   2.0000     -10.501952      -285.7726 
   6   2.0000     -10.488213      -285.3988 
   7   2.0000     -10.478889      -285.1451 
   8   2.0000     -10.478566      -285.1363 
   9   2.0000     -10.467075      -284.8236 
  10   2.0000     -10.454915      -284.4927 
  11   2.0000     -10.447067      -284.2792 
  12   2.0000     -10.446687      -284.2688 
  13   2.0000     -10.439762      -284.0804 
  14   2.0000     -10.439455      -284.0720 
  15   2.0000     -10.437074      -284.0072 
  16   2.0000     -10.436536      -283.9926 
  17   2.0000      -1.167724       -31.7754 
  18   2.0000      -1.131365       -30.7860 
  19   2.0000      -1.086854       -29.5748 
  20   2.0000      -1.013425       -27.5767 
  21   2.0000      -0.939163       -25.5559 
  22   2.0000      -0.896505       -24.3952 
  23   2.0000      -0.848348       -23.0847 
  24   2.0000      -0.837718       -22.7955 
  25   2.0000      -0.817727       -22.2515 
  26   2.0000      -0.796444       -21.6723 
  27   2.0000      -0.773113       -21.0375 
  28   2.0000      -0.719776       -19.5861 
  29   2.0000      -0.702497       -19.1159 
  30   2.0000      -0.666378       -18.1331 
  31   2.0000      -0.648551       -17.6480 
  32   2.0000      -0.626876       -17.0582 
  33   2.0000      -0.608771       -16.5655 
  34   2.0000      -0.578424       -15.7397 
  35   2.0000      -0.563311       -15.3285 
  36   2.0000      -0.557791       -15.1783 
  37   2.0000      -0.530350       -14.4316 
  38   2.0000      -0.529182       -14.3998 
  39   2.0000      -0.526632       -14.3304 
  40   2.0000      -0.509218       -13.8565 
  41   2.0000      -0.505052       -13.7432 
  42   2.0000      -0.493621       -13.4321 
  43   2.0000      -0.489936       -13.3318 
  44   2.0000      -0.473471       -12.8838 
  45   2.0000      -0.467464       -12.7203 
  46   2.0000      -0.457382       -12.4460 
  47   2.0000      -0.454496       -12.3675 
  48   2.0000      -0.449920       -12.2430 
  49   2.0000      -0.443074       -12.0567 
  50   2.0000      -0.426024       -11.5927 
  51   2.0000      -0.416727       -11.3397 
  52   2.0000      -0.413957       -11.2644 
  53   2.0000      -0.399094       -10.8599 
  54   2.0000      -0.393722       -10.7137 
  55   2.0000      -0.375068       -10.2061 
  56   2.0000      -0.353367        -9.6156 
  57   2.0000      -0.320461        -8.7202 
  58   2.0000      -0.301917        -8.2156 
  59   2.0000      -0.291282        -7.9262 
  60   2.0000      -0.250073        -6.8048 
  61   2.0000      -0.234907        -6.3921 
  62   0.0000       0.002729         0.0743 
  63   0.0000       0.056685         1.5425 
  64   0.0000       0.069143         1.8815 
  65   0.0000       0.092256         2.5104 
  66   0.0000       0.124892         3.3985 
  67   0.0000       0.125949         3.4273 
  68   0.0000       0.139411         3.7936 
  69   0.0000       0.152735         4.1561 
  70   0.0000       0.167275         4.5518 
  71   0.0000       0.171665         4.6713 
  72   0.0000       0.183239         4.9862 
  73   0.0000       0.192824         5.2470 
  74   0.0000       0.198740         5.4080 
  75   0.0000       0.207302         5.6410 
  76   0.0000       0.212223         5.7749 
  77   0.0000       0.213522         5.8102 
  78   0.0000       0.215794         5.8721 
  79   0.0000       0.222237         6.0474 
  80   0.0000       0.227637         6.1943 
  81   0.0000       0.232023         6.3137 
  82   0.0000       0.240942         6.5564 
  83   0.0000       0.243843         6.6353 
  84   0.0000       0.253394         6.8952 
  85   0.0000       0.263004         7.1567 
  86   0.0000       0.270416         7.3584 
  87   0.0000       0.279043         7.5931 
  88   0.0000       0.287363         7.8195 
  89   0.0000       0.299785         8.1576 
  90   0.0000       0.322648         8.7797 
  91   0.0000       0.329023         8.9532 
  92   0.0000       0.345083         9.3902 
  93   0.0000       0.356248         9.6940 
  94   0.0000       0.387999        10.5580 
  95   0.0000       0.409279        11.1370 
  96   0.0000       0.444329        12.0908 
  97   0.0000       0.459749        12.5104 
  98   0.0000       0.481242        13.0952 
  99   0.0000       0.486025        13.2254 
 100   0.0000       0.497345        13.5334 
 101   0.0000       0.500478        13.6187 
 102   0.0000       0.510132        13.8814 
 103   0.0000       0.519281        14.1304 
 104   0.0000       0.527866        14.3640 
 105   0.0000       0.538993        14.6667 
 106   0.0000       0.544474        14.8159 
 107   0.0000       0.550750        14.9867 
 108   0.0000       0.560760        15.2591 
 109   0.0000       0.571743        15.5579 
 110   0.0000       0.576780        15.6950 
 111   0.0000       0.578584        15.7441 
 112   0.0000       0.595238        16.1972 
 113   0.0000       0.602577        16.3970 
 114   0.0000       0.603305        16.4168 
 115   0.0000       0.610163        16.6034 
 116   0.0000       0.629187        17.1210 
 117   0.0000       0.632400        17.2085 
 118   0.0000       0.639095        17.3907 
 119   0.0000       0.650245        17.6941 
 120   0.0000       0.660434        17.9713 
 121   0.0000       0.664641        18.0858 
 122   0.0000       0.678047        18.4506 
 123   0.0000       0.685841        18.6627 
 124   0.0000       0.695031        18.9128 
 125   0.0000       0.715513        19.4701 
 126   0.0000       0.725160        19.7326 
 127   0.0000       0.739801        20.1310 
 128   0.0000       0.751146        20.4397 
 129   0.0000       0.770368        20.9628 
 130   0.0000       0.786700        21.4072 
 131   0.0000       0.798099        21.7174 
 132   0.0000       0.815620        22.1942 
 133   0.0000       0.828213        22.5368 
 134   0.0000       0.842677        22.9304 
 135   0.0000       0.867975        23.6188 
 136   0.0000       0.898704        24.4550 
 137   0.0000       0.910151        24.7665 
 138   0.0000       0.932202        25.3665 
 139   0.0000       0.934085        25.4177 
 140   0.0000       0.955813        26.0090 
 141   0.0000       0.968213        26.3464 
 142   0.0000       0.979434        26.6517 
 143   0.0000       0.984720        26.7956 
 144   0.0000       0.989282        26.9197 
 145   0.0000       0.998792        27.1785 
 146   0.0000       1.001692        27.2574 
 147   0.0000       1.011300        27.5189 
 148   0.0000       1.015985        27.6464 
 149   0.0000       1.023153        27.8414 
 150   0.0000       1.028620        27.9902 
 151   0.0000       1.031130        28.0585 
 152   0.0000       1.033316        28.1180 
 153   0.0000       1.048490        28.5309 
 154   0.0000       1.056630        28.7524 
 155   0.0000       1.057321        28.7712 
 156   0.0000       1.069835        29.1117 
 157   0.0000       1.077705        29.3258 
 158   0.0000       1.092987        29.7417 
 159   0.0000       1.096732        29.8436 
 160   0.0000       1.122786        30.5526 
 161   0.0000       1.138764        30.9873 
 162   0.0000       1.152498        31.3611 
 163   0.0000       1.155787        31.4506 
 164   0.0000       1.168102        31.7857 
 165   0.0000       1.200918        32.6786 
 166   0.0000       1.226476        33.3741 
 167   0.0000       1.239371        33.7250 
 168   0.0000       1.258183        34.2369 
 169   0.0000       1.267972        34.5033 
 170   0.0000       1.285675        34.9850 
 171   0.0000       1.291718        35.1494 
 172   0.0000       1.293541        35.1990 
 173   0.0000       1.317559        35.8526 
 174   0.0000       1.347958        36.6798 
 175   0.0000       1.388483        37.7825 
 176   0.0000       1.405593        38.2481 
 177   0.0000       1.409045        38.3421 
 178   0.0000       1.420623        38.6571 
 179   0.0000       1.424676        38.7674 
 180   0.0000       1.438548        39.1449 
 181   0.0000       1.462828        39.8056 
 182   0.0000       1.470187        40.0058 
 183   0.0000       1.489817        40.5400 
 184   0.0000       1.509421        41.0734 
 185   0.0000       1.530225        41.6395 
 186   0.0000       1.533563        41.7304 
 187   0.0000       1.543227        41.9933 
 188   0.0000       1.559126        42.4260 
 189   0.0000       1.571236        42.7555 
 190   0.0000       1.591456        43.3057 
 191   0.0000       1.596941        43.4550 
 192   0.0000       1.618598        44.0443 
 193   0.0000       1.713005        46.6132 
 194   0.0000       1.719013        46.7767 
 195   0.0000       1.764006        48.0010 
 196   0.0000       1.798242        48.9327 
 197   0.0000       1.831919        49.8491 
 198   0.0000       1.845235        50.2114 
 199   0.0000       1.859531        50.6004 
 200   0.0000       1.871047        50.9138 
 201   0.0000       1.885319        51.3021 
 202   0.0000       1.891581        51.4725 
 203   0.0000       1.901135        51.7325 
 204   0.0000       1.919144        52.2226 
 205   0.0000       1.939288        52.7707 
 206   0.0000       1.957275        53.2601 
 207   0.0000       1.977527        53.8113 
 208   0.0000       1.990666        54.1688 
 209   0.0000       2.006875        54.6099 
 210   0.0000       2.010992        54.7219 
 211   0.0000       2.032702        55.3126 
 212   0.0000       2.044091        55.6226 
 213   0.0000       2.059288        56.0361 
 214   0.0000       2.080275        56.6072 
 215   0.0000       2.087983        56.8169 
 216   0.0000       2.101912        57.1959 
 217   0.0000       2.118116        57.6369 
 218   0.0000       2.150325        58.5133 
 219   0.0000       2.154572        58.6289 
 220   0.0000       2.164865        58.9090 
 221   0.0000       2.167014        58.9674 
 222   0.0000       2.173355        59.1400 
 223   0.0000       2.179538        59.3082 
 224   0.0000       2.229187        60.6593 
 225   0.0000       2.261504        61.5387 
 226   0.0000       2.271256        61.8040 
 227   0.0000       2.273537        61.8661 
 228   0.0000       2.287553        62.2475 
 229   0.0000       2.298895        62.5561 
 230   0.0000       2.308072        62.8058 
 231   0.0000       2.314838        62.9899 
 232   0.0000       2.319409        63.1143 
 233   0.0000       2.341865        63.7254 
 234   0.0000       2.376114        64.6573 
 235   0.0000       2.380758        64.7837 
 236   0.0000       2.390354        65.0448 
 237   0.0000       2.413042        65.6622 
 238   0.0000       2.438788        66.3628 
 239   0.0000       2.456928        66.8564 
 240   0.0000       2.490959        67.7824 
 241   0.0000       2.504891        68.1616 
 242   0.0000       2.521307        68.6083 
 243   0.0000       2.526438        68.7479 
 244   0.0000       2.550439        69.4010 
 245   0.0000       2.570865        69.9568 
 246   0.0000       2.594149        70.5904 
 247   0.0000       2.601682        70.7954 
 248   0.0000       2.645423        71.9856 
 249   0.0000       2.667871        72.5965 
 250   0.0000       2.674286        72.7710 
 251   0.0000       2.721752        74.0626 
 252   0.0000       2.729300        74.2680 
 253   0.0000       2.744888        74.6922 
 254   0.0000       2.764443        75.2243 
 255   0.0000       2.780342        75.6569 
 256   0.0000       2.793723        76.0211 
 257   0.0000       2.818562        76.6970 
 258   0.0000       2.839481        77.2662 
 259   0.0000       2.867022        78.0156 
 260   0.0000       2.961460        80.5854 
 261   0.0000       2.988042        81.3088 
 262   0.0000       3.019443        82.1632 
 263   0.0000       3.032643        82.5224 
 264   0.0000       3.063850        83.3716 
 265   0.0000       3.161236        86.0216 
 266   0.0000       3.226240        87.7904 
 267   0.0000       3.234754        88.0221 
 268   0.0000       3.362760        91.5054 
 269   0.0000       3.526462        95.9599 
 270   0.0000      13.269625       361.0849 
 271   0.0000      13.624953       370.7538 
 272   0.0000      13.660181       371.7124 
 273   0.0000      13.751532       374.1982 
 274   0.0000      13.776305       374.8723 
 275   0.0000      13.835687       376.4882 
 276   0.0000      13.854526       377.0008 
 277   0.0000      14.035791       381.9333 
 278   0.0000      14.050429       382.3316 
 279   0.0000      14.123461       384.3189 
 280   0.0000      14.238608       387.4522 
 281   0.0000      14.334659       390.0659 
 282   0.0000      14.544937       395.7879 
 283   0.0000      19.321579       525.7669 
 284   0.0000      19.405083       528.0392 
 285   0.0000      25.761068       700.9943 
 286   0.0000      25.781527       701.5510 

                    ********************************
                    * MULLIKEN POPULATION ANALYSIS *
                    ********************************

-----------------------
MULLIKEN ATOMIC CHARGES
-----------------------
   0 N :   -0.703753
   1 C :   -0.061003
   2 C :    0.020596
   3 C :    0.074069
   4 C :   -0.446866
   5 C :    0.403162
   6 C :   -0.365695
   7 C :   -0.258210
   8 C :    0.359038
   9 H :    0.357404
  10 H :    0.244851
  11 H :    0.218028
  12 H :    0.231160
  13 H :    0.214128
  14 O :   -0.468970
  15 C :   -0.403974
  16 H :    0.202651
  17 H :    0.204649
  18 H :    0.239943
  19 C :   -0.543177
  20 C :   -0.288416
  21 N :   -0.616278
  22 C :    0.518022
  23 C :   -0.748131
  24 H :    0.229596
  25 H :    0.257368
  26 H :    0.226973
  27 H :    0.257796
  28 H :    0.360819
  29 O :   -0.434177
  30 H :    0.245771
  31 H :    0.212760
  32 H :    0.259867
Sum of atomic charges:   -0.0000000

--------------------------------
MULLIKEN REDUCED ORBITAL CHARGES
--------------------------------
  0 N s       :     3.597587  s :     3.597587
      pz      :     1.569863  p :     4.064899
      px      :     1.245429
      py      :     1.249608
      dz2     :     0.006215  d :     0.041267
      dxz     :     0.007502
      dyz     :     0.004454
      dx2y2   :     0.014185
      dxy     :     0.008912
  1 C s       :     3.159783  s :     3.159783
      pz      :     1.002488  p :     2.844520
      px      :     0.893434
      py      :     0.948598
      dz2     :     0.007501  d :     0.056701
      dxz     :     0.007419
      dyz     :     0.010714
      dx2y2   :     0.011235
      dxy     :     0.019832
  2 C s       :     3.199756  s :     3.199756
      pz      :     1.021819  p :     2.734174
      px      :     0.837044
      py      :     0.875312
      dz2     :     0.004678  d :     0.045473
      dxz     :     0.007142
      dyz     :     0.008288
      dx2y2   :     0.014907
      dxy     :     0.010458
  3 C s       :     3.217282  s :     3.217282
      pz      :     0.984968  p :     2.661405
      px      :     0.817956
      py      :     0.858481
      dz2     :     0.005459  d :     0.047243
      dxz     :     0.007792
      dyz     :     0.008021
      dx2y2   :     0.013779
      dxy     :     0.012191
  4 C s       :     3.359723  s :     3.359723
      pz      :     1.049347  p :     3.049485
      px      :     0.958980
      py      :     1.041157
      dz2     :     0.004349  d :     0.037658
      dxz     :     0.006733
      dyz     :     0.005013
      dx2y2   :     0.012478
      dxy     :     0.009085
  5 C s       :     3.046490  s :     3.046490
      pz      :     0.953870  p :     2.475557
      px      :     0.778884
      py      :     0.742803
      dz2     :     0.007522  d :     0.074791
      dxz     :     0.010684
      dyz     :     0.013342
      dx2y2   :     0.020299
      dxy     :     0.022944
  6 C s       :     3.250440  s :     3.250440
      pz      :     1.078032  p :     3.077316
      px      :     1.067061
      py      :     0.932223
      dz2     :     0.003582  d :     0.037939
      dxz     :     0.004971
      dyz     :     0.007550
      dx2y2   :     0.012703
      dxy     :     0.009132
  7 C s       :     3.251821  s :     3.251821
      pz      :     1.022536  p :     2.966278
      px      :     0.930048
      py      :     1.013695
      dz2     :     0.004264  d :     0.040110
      dxz     :     0.007566
      dyz     :     0.005483
      dx2y2   :     0.013129
      dxy     :     0.009669
  8 C s       :     3.071923  s :     3.071923
      pz      :     0.974939  p :     2.505762
      px      :     0.714838
      py      :     0.815985
      dz2     :     0.006593  d :     0.063278
      dxz     :     0.011036
      dyz     :     0.010313
      dx2y2   :     0.015242
      dxy     :     0.020093
  9 H s       :     0.642596  s :     0.642596
 10 H s       :     0.755149  s :     0.755149
 11 H s       :     0.781972  s :     0.781972
 12 H s       :     0.768840  s :     0.768840
 13 H s       :     0.785872  s :     0.785872
 14 O s       :     3.791813  s :     3.791813
      pz      :     1.769375  p :     4.644491
      px      :     1.305557
      py      :     1.569558
      dz2     :     0.004485  d :     0.032667
      dxz     :     0.005682
      dyz     :     0.004513
      dx2y2   :     0.008406
      dxy     :     0.009581
 15 C s       :     3.331095  s :     3.331095
      pz      :     1.063068  p :     3.011013
      px      :     0.773365
      py      :     1.174580
      dz2     :     0.014647  d :     0.061865
      dxz     :     0.013297
      dyz     :     0.006420
      dx2y2   :     0.012482
      dxy     :     0.015020
 16 H s       :     0.797349  s :     0.797349
 17 H s       :     0.795351  s :     0.795351
 18 H s       :     0.760057  s :     0.760057
 19 C s       :     3.395632  s :     3.395632
      pz      :     1.018254  p :     3.104161
      px      :     1.088474
      py      :     0.997432
      dz2     :     0.004995  d :     0.043384
      dxz     :     0.009365
      dyz     :     0.012552
      dx2y2   :     0.005064
      dxy     :     0.011408
 20 C s       :     3.284335  s :     3.284335
      pz      :     0.864912  p :     2.946501
      px      :     1.080853
      py      :     1.000736
      dz2     :     0.010854  d :     0.057581
      dxz     :     0.013475
      dyz     :     0.015105
      dx2y2   :     0.004117
      dxy     :     0.014030
 21 N s       :     3.538609  s :     3.538609
      pz      :     1.334311  p :     4.042619
      px      :     1.178665
      py      :     1.529642
      dz2     :     0.005849  d :     0.035051
      dxz     :     0.010782
      dyz     :     0.005344
      dx2y2   :     0.005091
      dxy     :     0.007985
 22 C s       :     2.982323  s :     2.982323
      pz      :     0.827379  p :     2.377666
      px      :     0.768526
      py      :     0.781761
      dz2     :     0.030766  d :     0.121988
      dxz     :     0.027034
      dyz     :     0.019857
      dx2y2   :     0.023101
      dxy     :     0.021230
 23 C s       :     3.407486  s :     3.407486
      pz      :     1.027092  p :     3.306675
      px      :     1.161520
      py      :     1.118063
      dz2     :     0.005657  d :     0.033970
      dxz     :     0.009807
      dyz     :     0.006418
      dx2y2   :     0.008302
      dxy     :     0.003786
 24 H s       :     0.770404  s :     0.770404
 25 H s       :     0.742632  s :     0.742632
 26 H s       :     0.773027  s :     0.773027
 27 H s       :     0.742204  s :     0.742204
 28 H s       :     0.639181  s :     0.639181
 29 O s       :     3.764245  s :     3.764245
      pz      :     1.470345  p :     4.640951
      px      :     1.633524
      py      :     1.537083
      dz2     :     0.008017  d :     0.028981
      dxz     :     0.008228
      dyz     :     0.005749
      dx2y2   :     0.002816
      dxy     :     0.004171
 30 H s       :     0.754229  s :     0.754229
 31 H s       :     0.787240  s :     0.787240
 32 H s       :     0.740133  s :     0.740133


                     *******************************
                     * LOEWDIN POPULATION ANALYSIS *
                     *******************************

----------------------
LOEWDIN ATOMIC CHARGES
----------------------
   0 N :   -0.164427
   1 C :   -0.081473
   2 C :   -0.109322
   3 C :   -0.052536
   4 C :   -0.162866
   5 C :    0.059016
   6 C :   -0.193310
   7 C :   -0.150315
   8 C :    0.005094
   9 H :    0.260950
  10 H :    0.137745
  11 H :    0.144701
  12 H :    0.140188
  13 H :    0.136436
  14 O :   -0.194342
  15 C :   -0.180562
  16 H :    0.111389
  17 H :    0.112478
  18 H :    0.130316
  19 C :   -0.236541
  20 C :   -0.144112
  21 N :   -0.238570
  22 C :    0.104348
  23 C :   -0.390591
  24 H :    0.135839
  25 H :    0.147280
  26 H :    0.125198
  27 H :    0.142548
  28 H :    0.256091
  29 O :   -0.285147
  30 H :    0.151016
  31 H :    0.127059
  32 H :    0.156421

-------------------------------
LOEWDIN REDUCED ORBITAL CHARGES
-------------------------------
  0 N s       :     3.076255  s :     3.076255
      pz      :     1.531565  p :     3.994388
      px      :     1.254613
      py      :     1.208210
      dz2     :     0.010904  d :     0.093785
      dxz     :     0.016889
      dyz     :     0.008848
      dx2y2   :     0.031776
      dxy     :     0.025368
  1 C s       :     2.885467  s :     2.885467
      pz      :     1.025275  p :     3.072696
      px      :     1.003216
      py      :     1.044205
      dz2     :     0.014894  d :     0.123310
      dxz     :     0.014905
      dyz     :     0.023160
      dx2y2   :     0.026880
      dxy     :     0.043471
  2 C s       :     2.843640  s :     2.843640
      pz      :     1.055483  p :     3.156723
      px      :     1.041788
      py      :     1.059452
      dz2     :     0.009302  d :     0.108960
      dxz     :     0.015483
      dyz     :     0.017265
      dx2y2   :     0.038964
      dxy     :     0.027945
  3 C s       :     2.832415  s :     2.832415
      pz      :     1.011187  p :     3.106006
      px      :     1.042551
      py      :     1.052268
      dz2     :     0.010894  d :     0.114114
      dxz     :     0.016549
      dyz     :     0.017793
      dx2y2   :     0.036748
      dxy     :     0.032129
  4 C s       :     2.886356  s :     2.886356
      pz      :     1.054615  p :     3.191372
      px      :     1.059318
      py      :     1.077440
      dz2     :     0.007530  d :     0.085137
      dxz     :     0.014725
      dyz     :     0.009383
      dx2y2   :     0.029951
      dxy     :     0.023549
  5 C s       :     2.824595  s :     2.824595
      pz      :     0.992825  p :     2.942845
      px      :     0.989656
      py      :     0.960364
      dz2     :     0.016269  d :     0.173544
      dxz     :     0.022966
      dyz     :     0.028533
      dx2y2   :     0.051431
      dxy     :     0.054344
  6 C s       :     2.888662  s :     2.888662
      pz      :     1.072041  p :     3.218962
      px      :     1.078168
      py      :     1.068753
      dz2     :     0.006489  d :     0.085686
      dxz     :     0.008564
      dyz     :     0.016462
      dx2y2   :     0.030343
      dxy     :     0.023828
  7 C s       :     2.884298  s :     2.884298
      pz      :     1.033820  p :     3.175165
      px      :     1.063373
      py      :     1.077972
      dz2     :     0.007739  d :     0.090852
      dxz     :     0.016590
      dyz     :     0.010372
      dx2y2   :     0.030912
      dxy     :     0.025240
  8 C s       :     2.812559  s :     2.812559
      pz      :     1.028440  p :     3.034486
      px      :     1.005852
      py      :     1.000194
      dz2     :     0.013721  d :     0.147861
      dxz     :     0.023507
      dyz     :     0.022734
      dx2y2   :     0.038637
      dxy     :     0.049262
  9 H s       :     0.739050  s :     0.739050
 10 H s       :     0.862255  s :     0.862255
 11 H s       :     0.855299  s :     0.855299
 12 H s       :     0.859812  s :     0.859812
 13 H s       :     0.863564  s :     0.863564
 14 O s       :     3.430047  s :     3.430047
      pz      :     1.761116  p :     4.692253
      px      :     1.346940
      py      :     1.584197
      dz2     :     0.008619  d :     0.072042
      dxz     :     0.013532
      dyz     :     0.007636
      dx2y2   :     0.020002
      dxy     :     0.022252
 15 C s       :     2.952203  s :     2.952203
      pz      :     1.093976  p :     3.106416
      px      :     0.865005
      py      :     1.147435
      dz2     :     0.027474  d :     0.121942
      dxz     :     0.027563
      dyz     :     0.011274
      dx2y2   :     0.025008
      dxy     :     0.030624
 16 H s       :     0.888611  s :     0.888611
 17 H s       :     0.887522  s :     0.887522
 18 H s       :     0.869684  s :     0.869684
 19 C s       :     2.902665  s :     2.902665
      pz      :     1.080057  p :     3.244295
      px      :     1.095278
      py      :     1.068960
      dz2     :     0.010166  d :     0.089580
      dxz     :     0.017978
      dyz     :     0.027478
      dx2y2   :     0.010591
      dxy     :     0.023368
 20 C s       :     2.899659  s :     2.899659
      pz      :     0.987250  p :     3.125539
      px      :     1.078373
      py      :     1.059916
      dz2     :     0.023272  d :     0.118914
      dxz     :     0.027567
      dyz     :     0.033966
      dx2y2   :     0.007910
      dxy     :     0.026199
 21 N s       :     3.115050  s :     3.115050
      pz      :     1.313453  p :     4.041174
      px      :     1.217796
      py      :     1.509925
      dz2     :     0.015241  d :     0.082347
      dxz     :     0.025516
      dyz     :     0.010167
      dx2y2   :     0.012955
      dxy     :     0.018469
 22 C s       :     2.829518  s :     2.829518
      pz      :     0.987419  p :     2.789568
      px      :     0.954621
      py      :     0.847527
      dz2     :     0.069492  d :     0.276566
      dxz     :     0.063059
      dyz     :     0.043541
      dx2y2   :     0.055068
      dxy     :     0.045406
 23 C s       :     2.963327  s :     2.963327
      pz      :     1.090668  p :     3.363933
      px      :     1.142107
      py      :     1.131158
      dz2     :     0.011300  d :     0.063331
      dxz     :     0.018278
      dyz     :     0.013060
      dx2y2   :     0.014303
      dxy     :     0.006391
 24 H s       :     0.864161  s :     0.864161
 25 H s       :     0.852720  s :     0.852720
 26 H s       :     0.874802  s :     0.874802
 27 H s       :     0.857452  s :     0.857452
 28 H s       :     0.743909  s :     0.743909
 29 O s       :     3.524138  s :     3.524138
      pz      :     1.526637  p :     4.705903
      px      :     1.645438
      py      :     1.533828
      dz2     :     0.014726  d :     0.055106
      dxz     :     0.018637
      dyz     :     0.009738
      dx2y2   :     0.005788
      dxy     :     0.006215
 30 H s       :     0.848984  s :     0.848984
 31 H s       :     0.872941  s :     0.872941
 32 H s       :     0.843579  s :     0.843579


                      *****************************
                      * MAYER POPULATION ANALYSIS *
                      *****************************

  NA   - Mulliken gross atomic population
  ZA   - Total nuclear charge
  QA   - Mulliken gross atomic charge
  VA   - Mayer's total valence
  BVA  - Mayer's bonded valence
  FA   - Mayer's free valence

  ATOM       NA         ZA         QA         VA         BVA        FA
  0 N      7.7038     7.0000    -0.7038     3.1608     3.1608    -0.0000
  1 C      6.0610     6.0000    -0.0610     3.7042     3.7042     0.0000
  2 C      5.9794     6.0000     0.0206     3.6919     3.6919     0.0000
  3 C      5.9259     6.0000     0.0741     3.7364     3.7364     0.0000
  4 C      6.4469     6.0000    -0.4469     3.7768     3.7768     0.0000
  5 C      5.5968     6.0000     0.4032     3.7445     3.7445     0.0000
  6 C      6.3657     6.0000    -0.3657     3.8001     3.8001    -0.0000
  7 C      6.2582     6.0000    -0.2582     3.7899     3.7899    -0.0000
  8 C      5.6410     6.0000     0.3590     3.5445     3.5445     0.0000
  9 H      0.6426     1.0000     0.3574     0.8521     0.8521    -0.0000
 10 H      0.7551     1.0000     0.2449     0.9028     0.9028    -0.0000
 11 H      0.7820     1.0000     0.2180     0.9251     0.9251    -0.0000
 12 H      0.7688     1.0000     0.2312     0.9126     0.9126    -0.0000
 13 H      0.7859     1.0000     0.2141     0.9141     0.9141    -0.0000
 14 O      8.4690     8.0000    -0.4690     2.0912     2.0912    -0.0000
 15 C      6.4040     6.0000    -0.4040     3.7129     3.7129    -0.0000
 16 H      0.7973     1.0000     0.2027     0.9095     0.9095    -0.0000
 17 H      0.7954     1.0000     0.2046     0.9092     0.9092    -0.0000
 18 H      0.7601     1.0000     0.2399     0.9089     0.9089     0.0000
 19 C      6.5432     6.0000    -0.5432     3.6811     3.6811     0.0000
 20 C      6.2884     6.0000    -0.2884     3.7040     3.7040    -0.0000
 21 N      7.6163     7.0000    -0.6163     3.0090     3.0090     0.0000
 22 C      5.4820     6.0000     0.5180     4.0116     4.0116    -0.0000
 23 C      6.7481     6.0000    -0.7481     3.6911     3.6911    -0.0000
 24 H      0.7704     1.0000     0.2296     0.9036     0.9036     0.0000
 25 H      0.7426     1.0000     0.2574     0.9020     0.9020     0.0000
 26 H      0.7730     1.0000     0.2270     0.9074     0.9074    -0.0000
 27 H      0.7422     1.0000     0.2578     0.9034     0.9034    -0.0000
 28 H      0.6392     1.0000     0.3608     0.8439     0.8439     0.0000
 29 O      8.4342     8.0000    -0.4342     2.1640     2.1640     0.0000
 30 H      0.7542     1.0000     0.2458     0.9028     0.9028     0.0000
 31 H      0.7872     1.0000     0.2128     0.9143     0.9143    -0.0000
 32 H      0.7401     1.0000     0.2599     0.9007     0.9007    -0.0000

  Mayer bond orders larger than 0.100000
B(  0-N ,  1-C ) :   1.1308 B(  0-N ,  8-C ) :   1.0045 B(  0-N ,  9-H ) :   0.8341 
B(  1-C ,  2-C ) :   1.5696 B(  1-C , 10-H ) :   0.9074 B(  2-C ,  3-C ) :   1.2277 
B(  2-C , 19-C ) :   0.9554 B(  3-C ,  4-C ) :   1.2888 B(  3-C ,  8-C ) :   1.2297 
B(  4-C ,  5-C ) :   1.4380 B(  4-C ,  7-C ) :   0.1018 B(  4-C , 11-H ) :   0.9259 
B(  5-C ,  6-C ) :   1.2845 B(  5-C , 14-O ) :   1.0130 B(  6-C ,  7-C ) :   1.4700 
B(  6-C , 12-H ) :   0.9054 B(  7-C ,  8-C ) :   1.3186 B(  7-C , 13-H ) :   0.9208 
B( 14-O , 15-C ) :   0.9577 B( 15-C , 16-H ) :   0.9078 B( 15-C , 17-H ) :   0.9075 
B( 15-C , 18-H ) :   0.9235 B( 19-C , 20-C ) :   0.9559 B( 19-C , 24-H ) :   0.9137 
B( 19-C , 25-H ) :   0.9111 B( 20-C , 21-N ) :   0.9541 B( 20-C , 26-H ) :   0.9156 
B( 20-C , 27-H ) :   0.9033 B( 21-N , 22-C ) :   1.1440 B( 21-N , 28-H ) :   0.8230 
B( 22-C , 23-C ) :   0.9270 B( 22-C , 29-O ) :   1.9803 B( 23-C , 30-H ) :   0.9133 
B( 23-C , 31-H ) :   0.9220 B( 23-C , 32-H ) :   0.9118 

-------
TIMINGS
-------

Total SCF time: 0 days 0 hours 4 min 3 sec 

Total time                  ....     243.634 sec
Sum of individual times     ....     236.905 sec  ( 97.2%)

Fock matrix formation       ....     215.667 sec  ( 88.5%)
  Split-RI-J                ....      13.976 sec  (  6.5% of F)
  Chain of spheres X        ....     149.790 sec  ( 69.5% of F)
  XC integration            ....      36.122 sec  ( 16.7% of F)
    Basis function eval.    ....       9.722 sec  ( 26.9% of XC)
    Density eval.           ....       6.122 sec  ( 16.9% of XC)
    XC-Functional eval.     ....       3.091 sec  (  8.6% of XC)
    XC-Potential eval.      ....       3.560 sec  (  9.9% of XC)
Diagonalization             ....       0.895 sec  (  0.4%)
Density matrix formation    ....       0.324 sec  (  0.1%)
Population analysis         ....       0.122 sec  (  0.1%)
Initial guess               ....       0.176 sec  (  0.1%)
Orbital Transformation      ....       0.000 sec  (  0.0%)
Orbital Orthonormalization  ....       0.000 sec  (  0.0%)
DIIS solution               ....       3.281 sec  (  1.3%)
SOSCF solution              ....       1.924 sec  (  0.8%)
Grid generation             ....      14.516 sec  (  6.0%)

Maximum memory used throughout the entire SCF-calculation: 97.7 MB


-------------------------------------------------------------------------------
                          DFT DISPERSION CORRECTION                            
                                                                               
                              DFTD3 V3.1  Rev 1                                
                          USING Becke-Johnson damping                          
-------------------------------------------------------------------------------
The PBEh-3c composite method is recognized
Using three-body term ABC
Active option DFTDOPT                   ...         4   

molecular C6(AA) [au] = 10863.055058 


            DFT-D V3
 parameters
 s6 scaling factor         :     1.0000 
 a1 scaling factor         :     0.4860 
 s8 scaling factor         :     0.0000 
 a2 scaling factor         :     4.5000 
 Damping factor alpha9(ATM):    16.0000 
 ad hoc parameters k1-k3   :    16.0000     1.3333    -4.0000 

 Edisp/kcal,au: -13.504580323208  -0.021520916322 
 E6   /kcal   : -13.585238444 
 E8   /kcal   :  -0.000000000 
 E6(ABC)      :   0.080658121 
 % E8         :   0.000000000 
 % E6(ABC)    :  -0.597264921 

-------------------------   ----------------
Dispersion correction           -0.021520916
-------------------------   ----------------

------------------   -----------------
gCP correction             0.061664008
------------------   -----------------

-------------------------   --------------------
FINAL SINGLE POINT ENERGY      -763.329007289479
-------------------------   --------------------


                            ***************************************
                            *     ORCA property calculations      *
                            ***************************************

                                    ---------------------
                                    Active property flags
                                    ---------------------
   (+) Dipole Moment


------------------------------------------------------------------------------
                       ORCA ELECTRIC PROPERTIES CALCULATION
------------------------------------------------------------------------------

Dipole Moment Calculation                       ... on
Quadrupole Moment Calculation                   ... off
Polarizability Calculation                      ... off
GBWName                                         ... pbeh-3c.gbw
Electron density                                ... pbeh-3c.scfp
The origin for moment calculation is the CENTER OF MASS  = ( 0.056208,  0.046778 -0.242579)

-------------
DIPOLE MOMENT
-------------
                                X             Y             Z
Electronic contribution:     -0.99181       2.71735      -3.25038
Nuclear contribution   :     -0.27710      -1.42508       4.33880
                        -----------------------------------------
Total Dipole Moment    :     -1.26891       1.29227       1.08843
                        -----------------------------------------
Magnitude (a.u.)       :      2.11300
Magnitude (Debye)      :      5.37081



--------------------
Rotational spectrum 
--------------------
 
Rotational constants in cm-1:     0.030736     0.007887     0.007077 
Rotational constants in MHz :   921.439038   236.444845   212.167883 

 Dipole components along the rotational axes: 
x,y,z [a.u.] :    -1.279741     1.256774     1.116932 
x,y,z [Debye]:    -3.252843     3.194466     2.839015 

 

Timings for individual modules:

Sum of individual times         ...      246.515 sec (=   4.109 min)
GTO integral calculation        ...        2.431 sec (=   0.041 min)   1.0 %
SCF iterations                  ...      244.084 sec (=   4.068 min)  99.0 %
                             ****ORCA TERMINATED NORMALLY****
TOTAL RUN TIME: 0 days 0 hours 4 minutes 7 seconds 983 msec
