
                                 *****************
                                 * O   R   C   A *
                                 *****************

                                            #,                                       
                                            ###                                      
                                            ####                                     
                                            #####                                    
                                            ######                                   
                                           ########,                                 
                                     ,,################,,,,,                         
                               ,,#################################,,                 
                          ,,##########################################,,             
                       ,#########################################, ''#####,          
                    ,#############################################,,   '####,        
                  ,##################################################,,,,####,       
                ,###########''''           ''''###############################       
              ,#####''   ,,,,##########,,,,          '''####'''          '####       
            ,##' ,,,,###########################,,,                        '##       
           ' ,,###''''                  '''############,,,                           
         ,,##''                                '''############,,,,        ,,,,,,###''
      ,#''                                            '''#######################'''  
     '                                                          ''''####''''         
             ,#######,   #######,   ,#######,      ##                                
            ,#'     '#,  ##    ##  ,#'     '#,    #''#        ######   ,####,        
            ##       ##  ##   ,#'  ##            #'  '#       #        #'  '#        
            ##       ##  #######   ##           ,######,      #####,   #    #        
            '#,     ,#'  ##    ##  '#,     ,#' ,#      #,         ##   #,  ,#        
             '#######'   ##     ##  '#######'  #'      '#     #####' # '####'        



                  #######################################################
                  #                        -***-                        #
                  #          Department of theory and spectroscopy      #
                  #    Directorship and core code : Frank Neese         #
                  #        Max Planck Institute fuer Kohlenforschung    #
                  #                Kaiser Wilhelm Platz 1               #
                  #                 D-45470 Muelheim/Ruhr               #
                  #                      Germany                        #
                  #                                                     #
                  #                  All rights reserved                #
                  #                        -***-                        #
                  #######################################################


                         Program Version 5.0.3 -  RELEASE  -


 With contributions from (in alphabetic order):
   Daniel Aravena         : Magnetic Suceptibility
   Michael Atanasov       : Ab Initio Ligand Field Theory (pilot matlab implementation)
   Alexander A. Auer      : GIAO ZORA, VPT2 properties, NMR spectrum
   Ute Becker             : Parallelization
   Giovanni Bistoni       : ED, misc. LED, open-shell LED, HFLD
   Martin Brehm           : Molecular dynamics
   Dmytro Bykov           : SCF Hessian
   Vijay G. Chilkuri      : MRCI spin determinant printing, contributions to CSF-ICE
   Dipayan Datta          : RHF DLPNO-CCSD density
   Achintya Kumar Dutta   : EOM-CC, STEOM-CC
   Dmitry Ganyushin       : Spin-Orbit,Spin-Spin,Magnetic field MRCI
   Miquel Garcia          : C-PCM and meta-GGA Hessian, CC/C-PCM, Gaussian charge scheme
   Yang Guo               : DLPNO-NEVPT2, F12-NEVPT2, CIM, IAO-localization
   Andreas Hansen         : Spin unrestricted coupled pair/coupled cluster methods
   Benjamin Helmich-Paris : MC-RPA, TRAH-SCF, COSX integrals
   Lee Huntington         : MR-EOM, pCC
   Robert Izsak           : Overlap fitted RIJCOSX, COSX-SCS-MP3, EOM
   Marcus Kettner         : VPT2
   Christian Kollmar      : KDIIS, OOCD, Brueckner-CCSD(T), CCSD density, CASPT2, CASPT2-K
   Simone Kossmann        : Meta GGA functionals, TD-DFT gradient, OOMP2, MP2 Hessian
   Martin Krupicka        : Initial AUTO-CI
   Lucas Lang             : DCDCAS
   Marvin Lechner         : AUTO-CI (C++ implementation), FIC-MRCC
   Dagmar Lenk            : GEPOL surface, SMD
   Dimitrios Liakos       : Extrapolation schemes; Compound Job, initial MDCI parallelization
   Dimitrios Manganas     : Further ROCIS development; embedding schemes
   Dimitrios Pantazis     : SARC Basis sets
   Anastasios Papadopoulos: AUTO-CI, single reference methods and gradients
   Taras Petrenko         : DFT Hessian,TD-DFT gradient, ASA, ECA, R-Raman, ABS, FL, XAS/XES, NRVS
   Peter Pinski           : DLPNO-MP2, DLPNO-MP2 Gradient
   Christoph Reimann      : Effective Core Potentials
   Marius Retegan         : Local ZFS, SOC
   Christoph Riplinger    : Optimizer, TS searches, QM/MM, DLPNO-CCSD(T), (RO)-DLPNO pert. Triples
   Tobias Risthaus        : Range-separated hybrids, TD-DFT gradient, RPA, STAB
   Michael Roemelt        : Original ROCIS implementation
   Masaaki Saitow         : Open-shell DLPNO-CCSD energy and density
   Barbara Sandhoefer     : DKH picture change effects
   Avijit Sen             : IP-ROCIS
   Kantharuban Sivalingam : CASSCF convergence, NEVPT2, FIC-MRCI
   Bernardo de Souza      : ESD, SOC TD-DFT
   Georgi Stoychev        : AutoAux, RI-MP2 NMR, DLPNO-MP2 response
   Willem Van den Heuvel  : Paramagnetic NMR
   Boris Wezisla          : Elementary symmetry handling
   Frank Wennmohs         : Technical directorship


 We gratefully acknowledge several colleagues who have allowed us to
 interface, adapt or use parts of their codes:
   Stefan Grimme, W. Hujo, H. Kruse, P. Pracht,  : VdW corrections, initial TS optimization,
                  C. Bannwarth, S. Ehlert          DFT functionals, gCP, sTDA/sTD-DF
   Ed Valeev, F. Pavosevic, A. Kumar             : LibInt (2-el integral package), F12 methods
   Garnet Chan, S. Sharma, J. Yang, R. Olivares  : DMRG
   Ulf Ekstrom                                   : XCFun DFT Library
   Mihaly Kallay                                 : mrcc  (arbitrary order and MRCC methods)
   Jiri Pittner, Ondrej Demel                    : Mk-CCSD
   Frank Weinhold                                : gennbo (NPA and NBO analysis)
   Christopher J. Cramer and Donald G. Truhlar   : smd solvation model
   Lars Goerigk                                  : TD-DFT with DH, B97 family of functionals
   V. Asgeirsson, H. Jonsson                     : NEB implementation
   FAccTs GmbH                                   : IRC, NEB, NEB-TS, DLPNO-Multilevel, CI-OPT
                                                   MM, QMMM, 2- and 3-layer-ONIOM, Crystal-QMMM,
                                                   LR-CPCM, SF, NACMEs, symmetry and pop. for TD-DFT,
                                                   nearIR, NL-DFT gradient (VV10), updates on ESD,
                                                   ML-optimized integration grids
   S Lehtola, MJT Oliveira, MAL Marques          : LibXC Library
   Liviu Ungur et al                             : ANISO software


 Your calculation uses the libint2 library for the computation of 2-el integrals
 For citations please refer to: http://libint.valeyev.net

 Your ORCA version has been built with support for libXC version: 5.1.0
 For citations please refer to: https://tddft.org/programs/libxc/

 This ORCA versions uses:
   CBLAS   interface :  Fast vector & matrix operations
   LAPACKE interface :  Fast linear algebra routines
   SCALAPACK package :  Parallel linear algebra routines
   Shared memory     :  Shared parallel matrices
   BLAS/LAPACK       :  OpenBLAS 0.3.15  USE64BITINT DYNAMIC_ARCH NO_AFFINITY Haswell SINGLE_THREADED
        Core in use  :  Haswell
   Copyright (c) 2011-2014, The OpenBLAS Project




***************************************
The coordinates will be read from file: P11.xyz
***************************************


Your calculation utilizes the geometrical counterpoise correction gCP
Please cite in your paper:
H.Kruse, S. Grimme J.Chem.Phys., 136, (2012), 154101 
   

Your calculation utilizes the atom-pairwise dispersion correction
with the Becke-Johnson damping scheme (D3BJ)
Cite in your paper:
S.Grimme, S.Ehrlich, L.Goerigk, J Comput Chem, (2011), 32, 1456–1465 
S.Grimme, J.Antony, S.Ehrlich and H.Krieg, J.Chem.Phys., 132, (2010), 154104 
   

Your calculation employs the composite approach PBEh-3c.
Please cite in your paper:
S. Grimme, J. G. Brandenburg, C. Bannwarth, A. Hansen J.Chem.Phys., 143, (2015), 054107 
   

================================================================================

----- Orbital basis set information -----
Your calculation utilizes the basis: def2-mSVP

----- AuxJ basis set information -----
Your calculation utilizes the auxiliary basis: def2/J
   F. Weigend, Phys. Chem. Chem. Phys. 8, 1057 (2006).

================================================================================
                                        WARNINGS
                       Please study these warnings very carefully!
================================================================================


WARNING: your system is open-shell and RHF/RKS was chosen
  ===> : WILL SWITCH to UHF/UKS


INFO   : the flag for use of the SHARK integral package has been found!

================================================================================
                                       INPUT FILE
================================================================================
NAME = pbeh-3c.inp
|  1> ! PBEh-3c def2/J TightSCF DefGrid3
|  2> 
|  3> %maxcore 60000
|  4> 
|  5> %pal
|  6> nprocs 4
|  7> end
|  8> 
|  9> *xyzfile 0 2 P11.xyz
| 10> 
| 11>                          ****END OF INPUT****
================================================================================

                       ****************************
                       * Single Point Calculation *
                       ****************************

---------------------------------
CARTESIAN COORDINATES (ANGSTROEM)
---------------------------------
  C      1.226257    0.000000   -0.164372
  C      0.000000    0.000000    0.471927
  C     -1.226257    0.000000   -0.164372
  H      1.296455    0.000000   -1.245999
  H      2.152279    0.000000    0.394698
  H      0.000000    0.000000    1.559419
  H     -1.296455    0.000000   -1.245999
  H     -2.152279    0.000000    0.394698

----------------------------
CARTESIAN COORDINATES (A.U.)
----------------------------
  NO LB      ZA    FRAG     MASS         X           Y           Z
   0 C     6.0000    0    12.011    2.317290    0.000000   -0.310619
   1 C     6.0000    0    12.011    0.000000    0.000000    0.891813
   2 C     6.0000    0    12.011   -2.317290    0.000000   -0.310619
   3 H     1.0000    0     1.008    2.449945    0.000000   -2.354597
   4 H     1.0000    0     1.008    4.067217    0.000000    0.745872
   5 H     1.0000    0     1.008    0.000000    0.000000    2.946875
   6 H     1.0000    0     1.008   -2.449945    0.000000   -2.354597
   7 H     1.0000    0     1.008   -4.067217    0.000000    0.745872

--------------------------------
INTERNAL COORDINATES (ANGSTROEM)
--------------------------------
 C      0   0   0     0.000000000000     0.00000000     0.00000000
 C      1   0   0     1.381514719613     0.00000000     0.00000000
 C      2   1   0     1.381514719613   125.15077476     0.00000000
 H      1   2   3     1.083902551142   121.13792786     0.00000000
 H      1   2   3     1.081700707994   121.45458594   180.00000085
 H      2   1   3     1.087491800000   117.42461262   180.00000085
 H      3   2   1     1.083902551142   121.13792786     0.00000000
 H      3   2   1     1.081700707994   121.45458594   180.00000085

---------------------------
INTERNAL COORDINATES (A.U.)
---------------------------
 C      0   0   0     0.000000000000     0.00000000     0.00000000
 C      1   0   0     2.610684470049     0.00000000     0.00000000
 C      2   1   0     2.610684470049   125.15077476     0.00000000
 H      1   2   3     2.048278977517   121.13792786     0.00000000
 H      1   2   3     2.044118096977   121.45458594   180.00000085
 H      2   1   3     2.055061674885   117.42461262   180.00000085
 H      3   2   1     2.048278977517   121.13792786     0.00000000
 H      3   2   1     2.044118096977   121.45458594   180.00000085

---------------------
BASIS SET INFORMATION
---------------------
There are 2 groups of distinct atoms

 Group   1 Type C   : 8s4p1d contracted to 4s2p1d pattern {5111/31/1}
 Group   2 Type H   : 4s contracted to 2s pattern {31}

Atom   0C    basis set group =>   1
Atom   1C    basis set group =>   1
Atom   2C    basis set group =>   1
Atom   3H    basis set group =>   2
Atom   4H    basis set group =>   2
Atom   5H    basis set group =>   2
Atom   6H    basis set group =>   2
Atom   7H    basis set group =>   2
---------------------------------
AUXILIARY/J BASIS SET INFORMATION
---------------------------------
There are 2 groups of distinct atoms

 Group   1 Type C   : 12s5p4d2f1g contracted to 6s4p3d1f1g pattern {711111/2111/211/2/1}
 Group   2 Type H   : 5s2p1d contracted to 3s1p1d pattern {311/2/1}

Atom   0C    basis set group =>   1
Atom   1C    basis set group =>   1
Atom   2C    basis set group =>   1
Atom   3H    basis set group =>   2
Atom   4H    basis set group =>   2
Atom   5H    basis set group =>   2
Atom   6H    basis set group =>   2
Atom   7H    basis set group =>   2


           ************************************************************
           *        Program running with 4 parallel MPI-processes     *
           *              working on a common directory               *
           ************************************************************
------------------------------------------------------------------------------
                           ORCA GTO INTEGRAL CALCULATION
                           -- RI-GTO INTEGRALS CHOSEN --
------------------------------------------------------------------------------
------------------------------------------------------------------------------
                   ___                                                        
                  /   \      - P O W E R E D   B Y -                         
                 /     \                                                     
                 |  |  |   _    _      __       _____    __    __             
                 |  |  |  | |  | |    /  \     |  _  \  |  |  /  |          
                  \  \/   | |  | |   /    \    | | | |  |  | /  /          
                 / \  \   | |__| |  /  /\  \   | |_| |  |  |/  /          
                |  |  |   |  __  | /  /__\  \  |    /   |      \           
                |  |  |   | |  | | |   __   |  |    \   |  |\   \          
                \     /   | |  | | |  |  |  |  | |\  \  |  | \   \       
                 \___/    |_|  |_| |__|  |__|  |_| \__\ |__|  \__/        
                                                                              
                      - O R C A' S   B I G   F R I E N D -                    
                                      &                                       
                       - I N T E G R A L  F E E D E R -                       
                                                                              
 v1 FN, 2020, v2 2021                                                         
------------------------------------------------------------------------------


Reading SHARK input file pbeh-3c.SHARKINP.tmp ... ok
----------------------
SHARK INTEGRAL PACKAGE
----------------------

Number of atoms                             ...      8
Number of basis functions                   ...     55
Number of shells                            ...     31
Maximum angular momentum                    ...      2
Integral batch strategy                     ... SHARK/LIBINT Hybrid
RI-J (if used) integral strategy            ... SPLIT-RIJ (Revised 2003 algorithm where possible)
Printlevel                                  ...      1
Contraction scheme used                     ... SEGMENTED contraction
Coulomb Range Separation                    ... NOT USED
Exchange Range Separation                   ... NOT USED
Finite Nucleus Model                        ... NOT USED
Auxiliary Coulomb fitting basis             ... AVAILABLE
   # of basis functions in Aux-J            ...    202
   # of shells in Aux-J                     ...     70
   Maximum angular momentum in Aux-J        ...      4
Auxiliary J/K fitting basis                 ... NOT available
Auxiliary Correlation fitting basis         ... NOT available
Auxiliary 'external' fitting basis          ... NOT available
Integral threshold                          ...     2.500000e-11
Primitive cut-off                           ...     2.500000e-12
Primitive pair pre-selection threshold      ...     2.500000e-12

Calculating pre-screening integrals         ... done (  0.1 sec) Dimension = 31
Organizing shell pair data                  ... done (  0.2 sec)
Shell pair information
Total number of shell pairs                 ...       496
Shell pairs after pre-screening             ...       490
Total number of primitive shell pairs       ...      1824
Primitive shell pairs kept                  ...      1470
          la=0 lb=0:    247 shell pairs
          la=1 lb=0:    132 shell pairs
          la=1 lb=1:     21 shell pairs
          la=2 lb=0:     66 shell pairs
          la=2 lb=1:     18 shell pairs
          la=2 lb=2:      6 shell pairs

Calculating one electron integrals          ... done (  0.1 sec)
Calculating RI/J V-Matrix + Cholesky decomp.... done (  0.5 sec)
Calculating Nuclear repulsion               ... done (  0.1 sec) ENN=     65.014995453983 Eh

SHARK setup successfully completed in   2.5 seconds

Maximum memory used throughout the entire GTOINT-calculation: 9.2 MB


           ************************************************************
           *        Program running with 4 parallel MPI-processes     *
           *              working on a common directory               *
           ************************************************************
-------------------------------------------------------------------------------
                                 ORCA SCF
-------------------------------------------------------------------------------

------------
SCF SETTINGS
------------
Hamiltonian:
 Density Functional     Method          .... DFT(GTOs)
 Exchange Functional    Exchange        .... PBE
   PBE kappa parameter   XKappa         ....  1.024500
   PBE mue parameter    XMuePBE         ....  0.123457
 Correlation Functional Correlation     .... PBE
   PBE beta parameter  CBetaPBE         ....  0.030000
 LDA part of GGA corr.  LDAOpt          .... PW91-LDA
 Gradients option       PostSCFGGA      .... off
 Hybrid DFT is turned on
   Fraction HF Exchange ScalHFX         ....  0.420000
   Scaling of DF-GGA-X  ScalDFX         ....  0.580000
   Scaling of DF-GGA-C  ScalDFC         ....  1.000000
   Scaling of DF-LDA-C  ScalLDAC        ....  1.000000
   Perturbative correction              ....  0.000000
   Density functional embedding theory  .... OFF
 RI-approximation to the Coulomb term is turned on
   Number of AuxJ basis functions       .... 202
   RIJ-ON(X) (HFX calculated with O(N)) .... on
   Number of AuxJ basis functions       .... 202
   RIJ-COSX (HFX calculated with COS-X)).... on


General Settings:
 Integral files         IntName         .... pbeh-3c
 Hartree-Fock type      HFTyp           .... UHF
 Total Charge           Charge          ....    0
 Multiplicity           Mult            ....    2
 Number of Electrons    NEL             ....   23
 Basis Dimension        Dim             ....   55
 Nuclear Repulsion      ENuc            ....     65.0149954540 Eh

Convergence Acceleration:
 DIIS                   CNVDIIS         .... on
   Start iteration      DIISMaxIt       ....    12
   Startup error        DIISStart       ....  0.200000
   # of expansion vecs  DIISMaxEq       ....     5
   Bias factor          DIISBfac        ....   1.050
   Max. coefficient     DIISMaxC        ....  10.000
 Trust-Rad. Augm. Hess. CNVTRAH         .... auto
   Auto Start mean grad. ratio tolernc. ....  1.125000
   Auto Start start iteration           ....    20
   Auto Start num. interpolation iter.  ....    10
   Max. Number of Micro iterations      ....    16
   Max. Number of Macro iterations      .... Maxiter - #DIIS iter
   Number of Davidson start vectors     ....     2
   Converg. threshold I  (grad. norm)   ....   1.000e-05
   Converg. threshold II (energy diff.) ....   1.000e-08
   Grad. Scal. Fac. for Micro threshold ....   0.100
   Minimum threshold for Micro iter.    ....   0.010
   NR start threshold (gradient norm)   ....   0.001
   Initial trust radius                 ....   0.400
   Minimum AH scaling param. (alpha)    ....   1.000
   Maximum AH scaling param. (alpha)    .... 1000.000
   Orbital update algorithm             .... Taylor
   White noise on init. David. guess    .... on
   Maximum white noise                  ....   0.010
   Quad. conv. algorithm                .... NR
   COSX micro iterations for RIJONX calc.... off
 SOSCF                  CNVSOSCF        .... off
 Level Shifting         CNVShift        .... on
   Level shift para.    LevelShift      ....    0.2500
   Turn off err/grad.   ShiftErr        ....    0.0010
 Zerner damping         CNVZerner       .... off
 Static damping         CNVDamp         .... on
   Fraction old density DampFac         ....    0.7000
   Max. Damping (<1)    DampMax         ....    0.9800
   Min. Damping (>=0)   DampMin         ....    0.0000
   Turn off err/grad.   DampErr         ....    0.1000
 Fernandez-Rico         CNVRico         .... off

SCF Procedure:
 Maximum # iterations   MaxIter         ....   125
 SCF integral mode      SCFMode         .... Direct
   Integral package                     .... SHARK and LIBINT hybrid scheme
 Reset frequency        DirectResetFreq ....    20
 Integral Threshold     Thresh          ....  2.500e-11 Eh
 Primitive CutOff       TCut            ....  2.500e-12 Eh

Convergence Tolerance:
 Convergence Check Mode ConvCheckMode   .... Total+1el-Energy
 Convergence forced     ConvForced      .... 0
 Energy Change          TolE            ....  1.000e-08 Eh
 1-El. energy change                    ....  1.000e-05 Eh
 DIIS Error             TolErr          ....  5.000e-07


Diagonalization of the overlap matrix:
Smallest eigenvalue                        ... 4.567e-03
Time for diagonalization                   ...    0.001 sec
Threshold for overlap eigenvalues          ... 1.000e-08
Number of eigenvalues below threshold      ... 0
Time for construction of square roots      ...    0.658 sec
Total time needed                          ...    0.691 sec

--------------------------------
INITIAL GUESS: MINIMAL BASIS EHT
--------------------------------
The minimal basis has 20 functions
EHT matrix was diagonalized
Basis set overlap was calculated now projecting the orbitals
Using GuessMode=FMatrix for the initial guess
C*T matrix was formed
Effective Fockian was calculated
Effective Fockian was diagonalized
Initial density was built
                      ------------------
                      INITIAL GUESS DONE
                      ------------------
-------------------
DFT GRID GENERATION
-------------------

General Integration Accuracy     IntAcc      ... 4.959
Radial Grid Type                 RadialGrid  ... OptM3 with GC (2021)
Angular Grid (max. ang.)         AngularGrid ... 6 (Lebedev-590)
Angular grid pruning method      GridPruning ... 4 (adaptive)
Weight generation scheme         WeightScheme... Becke
Basis function cutoff            BFCut       ... 1.0000e-11
Integration weight cutoff        WCut        ... 1.0000e-14
Angular grids for H and He will be reduced by one unit
Partially contracted basis set               ... off
Rotationally invariant grid construction     ... off

Total number of grid points                  ...    87913
Total number of batches                      ...     1379
Average number of points per batch           ...       63
Average number of grid points per atom       ...    10989
Time for grid setup =    1.980 sec

--------------------
COSX GRID GENERATION
--------------------

GRIDX 1
-------
General Integration Accuracy     IntAcc      ... 4.020
Radial Grid Type                 RadialGrid  ... OptM3 with GC (2021)
Angular Grid (max. ang.)         AngularGrid ... 2 (Lebedev-110)
Angular grid pruning method      GridPruning ... 4 (adaptive)
Weight generation scheme         WeightScheme... Becke
Basis function cutoff            BFCut       ... 1.0000e-11
Integration weight cutoff        WCut        ... 1.0000e-14
Angular grids for H and He will be reduced by one unit
Partially contracted basis set               ... on
Rotationally invariant grid construction     ... off

Total number of grid points                  ...     9473
Total number of batches                      ...      153
Average number of points per batch           ...       61
Average number of grid points per atom       ...     1184
UseSFitting                                  ... on

GRIDX 2
-------
General Integration Accuracy     IntAcc      ... 4.338
Radial Grid Type                 RadialGrid  ... OptM3 with GC (2021)
Angular Grid (max. ang.)         AngularGrid ... 3 (Lebedev-194)
Angular grid pruning method      GridPruning ... 4 (adaptive)
Weight generation scheme         WeightScheme... Becke
Basis function cutoff            BFCut       ... 1.0000e-11
Integration weight cutoff        WCut        ... 1.0000e-14
Angular grids for H and He will be reduced by one unit
Partially contracted basis set               ... on
Rotationally invariant grid construction     ... off

Total number of grid points                  ...    20852
Total number of batches                      ...      329
Average number of points per batch           ...       63
Average number of grid points per atom       ...     2606
UseSFitting                                  ... on

GRIDX 3
-------
General Integration Accuracy     IntAcc      ... 4.871
Radial Grid Type                 RadialGrid  ... OptM3 with GC (2021)
Angular Grid (max. ang.)         AngularGrid ... 4 (Lebedev-302)
Angular grid pruning method      GridPruning ... 4 (adaptive)
Weight generation scheme         WeightScheme... Becke
Basis function cutoff            BFCut       ... 1.0000e-11
Integration weight cutoff        WCut        ... 1.0000e-14
Angular grids for H and He will be reduced by one unit
Partially contracted basis set               ... on
Rotationally invariant grid construction     ... off

Total number of grid points                  ...    41456
Total number of batches                      ...      651
Average number of points per batch           ...       63
Average number of grid points per atom       ...     5182
UseSFitting                                  ... on

Time for X-Grid setup             =    3.079 sec

--------------
SCF ITERATIONS
--------------
ITER       Energy         Delta-E        Max-DP      RMS-DP      [F,P]     Damp
               ***  Starting incremental Fock matrix formation  ***
  0   -116.7141058102   0.000000000000 0.05291512  0.00230060  0.2050516 0.7000
  1   -116.7940425601  -0.079936749960 0.03689620  0.00169931  0.1453083 0.7000
                               ***Turning on DIIS***
  2   -116.8521492466  -0.058106686485 0.02621951  0.00126378  0.1023746 0.7000
  3   -116.8940335272  -0.041884280559 0.06607462  0.00337962  0.0720227 0.0000
  4   -116.9972100942  -0.103176567029 0.00894985  0.00035965  0.0073738 0.0000
  5   -116.9978442074  -0.000634113187 0.00617167  0.00021738  0.0048214 0.0000
  6   -116.9980809015  -0.000236694149 0.00401496  0.00013853  0.0026972 0.0000
  7   -116.9981747298  -0.000093828249 0.00260732  0.00009789  0.0015254 0.0000
  8   -116.9982128404  -0.000038110631 0.00239530  0.00008418  0.0007055 0.0000
               *** Restarting incremental Fock matrix formation ***
                                   *** Resetting DIIS ***
  9   -116.9982293850  -0.000016544578 0.00018410  0.00000770  0.0000932 0.0000
 10   -116.9982295763  -0.000000191293 0.00009130  0.00000329  0.0000644 0.0000
 11   -116.9982296248  -0.000000048507 0.00008506  0.00000348  0.0000366 0.0000
 12   -116.9982296520  -0.000000027168 0.00003244  0.00000084  0.0000125 0.0000
                 **** Energy Check signals convergence ****

               *****************************************************
               *                     SUCCESS                       *
               *           SCF CONVERGED AFTER  13 CYCLES          *
               *****************************************************

Old exchange energy                            =     -7.257416595 Eh
New exchange energy                            =     -7.257411910 Eh
Exchange energy change after final integration =      0.000004684 Eh
Total energy after final integration           =   -116.998224969 Eh
Final COS-X integration done in                =     0.851 sec

----------------
TOTAL SCF ENERGY
----------------

Total Energy       :         -116.99822497 Eh           -3183.68356 eV

Components:
Nuclear Repulsion  :           65.01499545 Eh            1769.14797 eV
Electronic Energy  :         -182.01322042 Eh           -4952.83152 eV
One Electron Energy:         -284.65915797 Eh           -7745.96949 eV
Two Electron Energy:          102.64593754 Eh            2793.13796 eV
Max COSX asymmetry :            0.00000035 Eh               0.00001 eV

Virial components:
Potential Energy   :         -233.04462721 Eh           -6341.46670 eV
Kinetic Energy     :          116.04640224 Eh            3157.78314 eV
Virial Ratio       :            2.00820209


DFT components:
N(Alpha)           :       11.999999640125 electrons
N(Beta)            :       10.999999780158 electrons
N(Total)           :       22.999999420283 electrons
E(X)               :       -9.616511781724 Eh       
E(C)               :       -0.951662367845 Eh       
E(XC)              :      -10.568174149569 Eh       
DFET-embed. en.    :        0.000000000000 Eh       

---------------
SCF CONVERGENCE
---------------

  Last Energy change         ...   -1.5766e-09  Tolerance :   1.0000e-08
  Last MAX-Density change    ...    0.0000e+00  Tolerance :   1.0000e-07
  Last RMS-Density change    ...    0.0000e+00  Tolerance :   5.0000e-09
  Last DIIS Error            ...    6.0641e-06  Tolerance :   5.0000e-07

             **** THE GBW FILE WAS UPDATED (pbeh-3c.gbw) ****
             **** DENSITY pbeh-3c.scfp WAS UPDATED ****
             **** ENERGY FILE WAS UPDATED (pbeh-3c.en.tmp) ****
----------------------
UHF SPIN CONTAMINATION
----------------------

Warning: in a DFT calculation there is little theoretical justification to 
         calculate <S**2> as in Hartree-Fock theory. We will do it anyways
         but you should keep in mind that the values have only limited relevance

Expectation value of <S**2>     :     0.807511
Ideal value S*(S+1) for S=0.5   :     0.750000
Deviation                       :     0.057511

             **** THE GBW FILE WAS UPDATED (pbeh-3c.gbw) ****
             **** DENSITY pbeh-3c.scfp WAS UPDATED ****
----------------
ORBITAL ENERGIES
----------------
                 SPIN UP ORBITALS
  NO   OCC          E(Eh)            E(eV) 
   0   1.0000     -10.447419      -284.2887 
   1   1.0000     -10.447214      -284.2832 
   2   1.0000     -10.446396      -284.2609 
   3   1.0000      -0.887634       -24.1538 
   4   1.0000      -0.767489       -20.8844 
   5   1.0000      -0.627084       -17.0638 
   6   1.0000      -0.542083       -14.7508 
   7   1.0000      -0.496936       -13.5223 
   8   1.0000      -0.441763       -12.0210 
   9   1.0000      -0.412914       -11.2359 
  10   1.0000      -0.375682       -10.2228 
  11   1.0000      -0.245538        -6.6814 
  12   0.0000       0.072185         1.9642 
  13   0.0000       0.157914         4.2971 
  14   0.0000       0.191358         5.2071 
  15   0.0000       0.195539         5.3209 
  16   0.0000       0.242669         6.6034 
  17   0.0000       0.254204         6.9172 
  18   0.0000       0.326158         8.8752 
  19   0.0000       0.364543         9.9197 
  20   0.0000       0.481687        13.1074 
  21   0.0000       0.513887        13.9836 
  22   0.0000       0.527872        14.3641 
  23   0.0000       0.576859        15.6971 
  24   0.0000       0.650921        17.7125 
  25   0.0000       0.656889        17.8749 
  26   0.0000       0.675143        18.3716 
  27   0.0000       0.687023        18.6948 
  28   0.0000       0.909532        24.7496 
  29   0.0000       0.929517        25.2935 
  30   0.0000       0.996773        27.1236 
  31   0.0000       1.031306        28.0633 
  32   0.0000       1.053470        28.6664 
  33   0.0000       1.082960        29.4688 
  34   0.0000       1.093906        29.7667 
  35   0.0000       1.157240        31.4901 
  36   0.0000       1.234863        33.6023 
  37   0.0000       1.414342        38.4862 
  38   0.0000       1.514890        41.2222 
  39   0.0000       1.716695        46.7137 
  40   0.0000       1.766018        48.0558 
  41   0.0000       1.911963        52.0272 
  42   0.0000       1.967449        53.5370 
  43   0.0000       2.014952        54.8296 
  44   0.0000       2.189982        59.5924 
  45   0.0000       2.250542        61.2404 
  46   0.0000       2.289132        62.2904 
  47   0.0000       2.371306        64.5265 
  48   0.0000       2.519424        68.5570 
  49   0.0000       2.598757        70.7158 
  50   0.0000       2.814545        76.5877 
  51   0.0000       2.987998        81.3076 
  52   0.0000      13.329767       362.7214 
  53   0.0000      13.726462       373.5160 
  54   0.0000      14.157528       385.2459 

                 SPIN DOWN ORBITALS
  NO   OCC          E(Eh)            E(eV) 
   0   1.0000     -10.451897      -284.4106 
   1   1.0000     -10.436411      -283.9892 
   2   1.0000     -10.436368      -283.9880 
   3   1.0000      -0.875066       -23.8118 
   4   1.0000      -0.733224       -19.9520 
   5   1.0000      -0.618984       -16.8434 
   6   1.0000      -0.536062       -14.5870 
   7   1.0000      -0.489632       -13.3236 
   8   1.0000      -0.434443       -11.8218 
   9   1.0000      -0.409888       -11.1536 
  10   1.0000      -0.333715        -9.0808 
  11   0.0000      -0.040496        -1.1019 
  12   0.0000       0.104529         2.8444 
  13   0.0000       0.162435         4.4201 
  14   0.0000       0.196605         5.3499 
  15   0.0000       0.207022         5.6334 
  16   0.0000       0.247665         6.7393 
  17   0.0000       0.259527         7.0621 
  18   0.0000       0.327694         8.9170 
  19   0.0000       0.368152        10.0179 
  20   0.0000       0.486866        13.2483 
  21   0.0000       0.532937        14.5020 
  22   0.0000       0.551973        15.0200 
  23   0.0000       0.634553        17.2671 
  24   0.0000       0.652695        17.7607 
  25   0.0000       0.660136        17.9632 
  26   0.0000       0.690342        18.7852 
  27   0.0000       0.703606        19.1461 
  28   0.0000       0.912467        24.8295 
  29   0.0000       0.940599        25.5950 
  30   0.0000       0.993952        27.0468 
  31   0.0000       1.043766        28.4023 
  32   0.0000       1.072610        29.1872 
  33   0.0000       1.088383        29.6164 
  34   0.0000       1.105647        30.0862 
  35   0.0000       1.161909        31.6171 
  36   0.0000       1.237985        33.6873 
  37   0.0000       1.437409        39.1139 
  38   0.0000       1.527606        41.5683 
  39   0.0000       1.763617        47.9905 
  40   0.0000       1.806550        49.1587 
  41   0.0000       1.932674        52.5907 
  42   0.0000       1.972276        53.6684 
  43   0.0000       2.022931        55.0468 
  44   0.0000       2.225380        60.5557 
  45   0.0000       2.267916        61.7131 
  46   0.0000       2.293252        62.4025 
  47   0.0000       2.390130        65.0387 
  48   0.0000       2.533243        68.9330 
  49   0.0000       2.608450        70.9795 
  50   0.0000       2.817434        76.6663 
  51   0.0000       2.990528        81.3764 
  52   0.0000      13.336377       362.9013 
  53   0.0000      13.741681       373.9301 
  54   0.0000      14.159452       385.2983 

                    ********************************
                    * MULLIKEN POPULATION ANALYSIS *
                    ********************************

--------------------------------------------
MULLIKEN ATOMIC CHARGES AND SPIN POPULATIONS
--------------------------------------------
   0 C :   -0.477282    0.765453
   1 C :   -0.138520   -0.378844
   2 C :   -0.477282    0.765453
   3 H :    0.215945   -0.041648
   4 H :    0.220982   -0.043320
   5 H :    0.219231    0.017872
   6 H :    0.215945   -0.041648
   7 H :    0.220982   -0.043320
Sum of atomic charges         :   -0.0000000
Sum of atomic spin populations:    1.0000000

-----------------------------------------------------
MULLIKEN REDUCED ORBITAL CHARGES AND SPIN POPULATIONS
-----------------------------------------------------
CHARGE
  0 C s       :     3.341972  s :     3.341972
      pz      :     1.083956  p :     3.104320
      px      :     1.020193
      py      :     1.000170
      dz2     :     0.010459  d :     0.030991
      dxz     :     0.010077
      dyz     :     0.000789
      dx2y2   :     0.006114
      dxy     :     0.003551
  1 C s       :     3.203965  s :     3.203965
      pz      :     1.025916  p :     2.891973
      px      :     0.886262
      py      :     0.979795
      dz2     :     0.013897  d :     0.042582
      dxz     :     0.010883
      dyz     :     0.001850
      dx2y2   :     0.006617
      dxy     :     0.009335
  2 C s       :     3.341972  s :     3.341972
      pz      :     1.083956  p :     3.104320
      px      :     1.020193
      py      :     1.000170
      dz2     :     0.010459  d :     0.030991
      dxz     :     0.010077
      dyz     :     0.000789
      dx2y2   :     0.006114
      dxy     :     0.003551
  3 H s       :     0.784055  s :     0.784055
  4 H s       :     0.779018  s :     0.779018
  5 H s       :     0.780769  s :     0.780769
  6 H s       :     0.784055  s :     0.784055
  7 H s       :     0.779018  s :     0.779018

SPIN
  0 C s       :     0.073533  s :     0.073533
      pz      :     0.037075  p :     0.695449
      px      :     0.027068
      py      :     0.631306
      dz2     :    -0.000615  d :    -0.003528
      dxz     :    -0.000122
      dyz     :    -0.000190
      dx2y2   :    -0.001605
      dxy     :    -0.000996
  1 C s       :    -0.045592  s :    -0.045592
      pz      :    -0.029521  p :    -0.344158
      px      :    -0.044650
      py      :    -0.269987
      dz2     :     0.000359  d :     0.010906
      dxz     :     0.000232
      dyz     :     0.000413
      dx2y2   :     0.000566
      dxy     :     0.009335
  2 C s       :     0.073533  s :     0.073533
      pz      :     0.037075  p :     0.695449
      px      :     0.027068
      py      :     0.631306
      dz2     :    -0.000615  d :    -0.003528
      dxz     :    -0.000122
      dyz     :    -0.000190
      dx2y2   :    -0.001605
      dxy     :    -0.000996
  3 H s       :    -0.041648  s :    -0.041648
  4 H s       :    -0.043320  s :    -0.043320
  5 H s       :     0.017872  s :     0.017872
  6 H s       :    -0.041648  s :    -0.041648
  7 H s       :    -0.043320  s :    -0.043320


                     *******************************
                     * LOEWDIN POPULATION ANALYSIS *
                     *******************************

-------------------------------------------
LOEWDIN ATOMIC CHARGES AND SPIN POPULATIONS
-------------------------------------------
   0 C :   -0.246359    0.651795
   1 C :   -0.167613   -0.231102
   2 C :   -0.246359    0.651795
   3 H :    0.130916   -0.019761
   4 H :    0.133264   -0.020536
   5 H :    0.131970    0.008107
   6 H :    0.130916   -0.019761
   7 H :    0.133264   -0.020536

----------------------------------------------------
LOEWDIN REDUCED ORBITAL CHARGES AND SPIN POPULATIONS
----------------------------------------------------
CHARGE
  0 C s       :     2.979360  s :     2.979360
      pz      :     1.109063  p :     3.205392
      px      :     1.098380
      py      :     0.997949
      dz2     :     0.019922  d :     0.061606
      dxz     :     0.022179
      dyz     :     0.001493
      dx2y2   :     0.011497
      dxy     :     0.006515
  1 C s       :     2.902302  s :     2.902302
      pz      :     1.096888  p :     3.167321
      px      :     1.106047
      py      :     0.964386
      dz2     :     0.028516  d :     0.097989
      dxz     :     0.028975
      dyz     :     0.003012
      dx2y2   :     0.016798
      dxy     :     0.020688
  2 C s       :     2.979360  s :     2.979360
      pz      :     1.109063  p :     3.205392
      px      :     1.098380
      py      :     0.997949
      dz2     :     0.019922  d :     0.061606
      dxz     :     0.022179
      dyz     :     0.001493
      dx2y2   :     0.011497
      dxy     :     0.006515
  3 H s       :     0.869084  s :     0.869084
  4 H s       :     0.866736  s :     0.866736
  5 H s       :     0.868030  s :     0.868030
  6 H s       :     0.869084  s :     0.869084
  7 H s       :     0.866736  s :     0.866736

SPIN
  0 C s       :     0.027246  s :     0.027246
      pz      :     0.015940  p :     0.631213
      px      :     0.015463
      py      :     0.599810
      dz2     :    -0.001050  d :    -0.006665
      dxz     :    -0.000815
      dyz     :    -0.000618
      dx2y2   :    -0.001813
      dxy     :    -0.002370
  1 C s       :    -0.014872  s :    -0.014872
      pz      :    -0.009773  p :    -0.241544
      px      :    -0.016166
      py      :    -0.215604
      dz2     :     0.000824  d :     0.025313
      dxz     :     0.001299
      dyz     :     0.001271
      dx2y2   :     0.001231
      dxy     :     0.020688
  2 C s       :     0.027246  s :     0.027246
      pz      :     0.015940  p :     0.631213
      px      :     0.015463
      py      :     0.599810
      dz2     :    -0.001050  d :    -0.006665
      dxz     :    -0.000815
      dyz     :    -0.000618
      dx2y2   :    -0.001813
      dxy     :    -0.002370
  3 H s       :    -0.019761  s :    -0.019761
  4 H s       :    -0.020536  s :    -0.020536
  5 H s       :     0.008107  s :     0.008107
  6 H s       :    -0.019761  s :    -0.019761
  7 H s       :    -0.020536  s :    -0.020536


                      *****************************
                      * MAYER POPULATION ANALYSIS *
                      *****************************

  NA   - Mulliken gross atomic population
  ZA   - Total nuclear charge
  QA   - Mulliken gross atomic charge
  VA   - Mayer's total valence
  BVA  - Mayer's bonded valence
  FA   - Mayer's free valence

  ATOM       NA         ZA         QA         VA         BVA        FA
  0 C      6.4773     6.0000    -0.4773     3.7909     3.3857     0.4051
  1 C      6.1385     6.0000    -0.1385     3.8132     3.7394     0.0739
  2 C      6.4773     6.0000    -0.4773     3.7909     3.3857     0.4051
  3 H      0.7841     1.0000     0.2159     0.9227     0.9210     0.0017
  4 H      0.7790     1.0000     0.2210     0.9217     0.9198     0.0019
  5 H      0.7808     1.0000     0.2192     0.9104     0.9100     0.0003
  6 H      0.7841     1.0000     0.2159     0.9227     0.9210     0.0017
  7 H      0.7790     1.0000     0.2210     0.9217     0.9198     0.0019

  Mayer bond orders larger than 0.100000
B(  0-C ,  1-C ) :   1.4354 B(  0-C ,  2-C ) :   0.1024 B(  0-C ,  3-H ) :   0.9283 
B(  0-C ,  4-H ) :   0.9262 B(  1-C ,  2-C ) :   1.4354 B(  1-C ,  5-H ) :   0.9191 
B(  2-C ,  6-H ) :   0.9283 B(  2-C ,  7-H ) :   0.9262 

-------
TIMINGS
-------

Total SCF time: 0 days 0 hours 1 min 21 sec 

Total time                  ....      81.121 sec
Sum of individual times     ....      73.195 sec  ( 90.2%)

Fock matrix formation       ....      61.576 sec  ( 75.9%)
  Split-RI-J                ....       6.500 sec  ( 10.6% of F)
  Chain of spheres X        ....       7.275 sec  ( 11.8% of F)
  XC integration            ....      20.244 sec  ( 32.9% of F)
    Basis function eval.    ....       0.744 sec  (  3.7% of XC)
    Density eval.           ....       0.876 sec  (  4.3% of XC)
    XC-Functional eval.     ....       0.931 sec  (  4.6% of XC)
    XC-Potential eval.      ....       0.440 sec  (  2.2% of XC)
Diagonalization             ....       1.187 sec  (  1.5%)
Density matrix formation    ....       0.090 sec  (  0.1%)
Population analysis         ....       1.852 sec  (  2.3%)
Initial guess               ....       0.003 sec  (  0.0%)
Orbital Transformation      ....       0.000 sec  (  0.0%)
Orbital Orthonormalization  ....       0.000 sec  (  0.0%)
DIIS solution               ....       3.427 sec  (  4.2%)
Grid generation             ....       5.059 sec  (  6.2%)

Maximum memory used throughout the entire SCF-calculation: 46.5 MB


-------------------------------------------------------------------------------
                          DFT DISPERSION CORRECTION                            
                                                                               
                              DFTD3 V3.1  Rev 1                                
                          USING Becke-Johnson damping                          
-------------------------------------------------------------------------------
The PBEh-3c composite method is recognized
Using three-body term ABC
Active option DFTDOPT                   ...         4   

molecular C6(AA) [au] = 574.267298 


            DFT-D V3
 parameters
 s6 scaling factor         :     1.0000 
 a1 scaling factor         :     0.4860 
 s8 scaling factor         :     0.0000 
 a2 scaling factor         :     4.5000 
 Damping factor alpha9(ATM):    16.0000 
 ad hoc parameters k1-k3   :    16.0000     1.3333    -4.0000 

 Edisp/kcal,au: -1.481455400486  -0.002360849204 
 E6   /kcal   :  -1.482224236 
 E8   /kcal   :  -0.000000000 
 E6(ABC)      :   0.000768835 
 % E8         :   0.000000000 
 % E6(ABC)    :  -0.051897308 

-------------------------   ----------------
Dispersion correction           -0.002360849
-------------------------   ----------------

------------------   -----------------
gCP correction             0.007656444
------------------   -----------------

-------------------------   --------------------
FINAL SINGLE POINT ENERGY      -116.992929374124
-------------------------   --------------------


                            ***************************************
                            *     ORCA property calculations      *
                            ***************************************

                                    ---------------------
                                    Active property flags
                                    ---------------------
   (+) Dipole Moment


------------------------------------------------------------------------------
                       ORCA ELECTRIC PROPERTIES CALCULATION
------------------------------------------------------------------------------

Dipole Moment Calculation                       ... on
Quadrupole Moment Calculation                   ... off
Polarizability Calculation                      ... off
GBWName                                         ... pbeh-3c.gbw
Electron density                                ... pbeh-3c.scfp
The origin for moment calculation is the CENTER OF MASS  = ( 0.000000,  0.000000  0.072484)

-------------
DIPOLE MOMENT
-------------
                                X             Y             Z
Electronic contribution:     -0.00000       0.00000       0.33158
Nuclear contribution   :      0.00000       0.00000      -0.31426
                        -----------------------------------------
Total Dipole Moment    :     -0.00000       0.00000       0.01732
                        -----------------------------------------
Magnitude (a.u.)       :      0.01732
Magnitude (Debye)      :      0.04403



--------------------
Rotational spectrum 
--------------------
 
Rotational constants in cm-1:     1.840592     0.345095     0.290609 
Rotational constants in MHz : 55179.571475 10345.700905  8712.231507 

 Dipole components along the rotational axes: 
x,y,z [a.u.] :    -0.000000     0.017322     0.000000 
x,y,z [Debye]:    -0.000000     0.044028     0.000000 

 

Timings for individual modules:

Sum of individual times         ...       85.764 sec (=   1.429 min)
GTO integral calculation        ...        3.824 sec (=   0.064 min)   4.5 %
SCF iterations                  ...       81.940 sec (=   1.366 min)  95.5 %
                             ****ORCA TERMINATED NORMALLY****
TOTAL RUN TIME: 0 days 0 hours 1 minutes 43 seconds 400 msec
